Na11Sn2PS12                             
           1
    13.481333    0.000000    0.000000
     0.000000   13.481333    0.000000
     0.000000    0.000000   26.962666
   Na   Sn   P    S 
  88  16   8  96
Direct configuration=    50
   0.02480680  0.99396247  0.12806690
   0.52559274  0.49965394  0.62256044
   0.52258508  0.52061472  0.86974637
   0.00854977  0.97500572  0.38712723
   0.31045625  0.97439143  0.87959426
   0.00574838  0.51597352  0.36355979
   0.99911361  0.45863294  0.12631787
   0.23989150  0.25282466  0.15895066
   0.78007453  0.97441409  0.63633959
   0.72617021  0.24779108  0.87314118
   0.77081035  0.76052052  0.37177730
   0.25318888  0.23865301  0.87215188
   0.75020164  0.22917118  0.12725362
   0.29456726  0.77291330  0.62989096
   0.99858776  0.01031658  0.85975713
   0.31375823  0.54164545  0.37302941
   0.00402942  0.97577241  0.69182511
   0.94601589  0.50699154  0.62284400
   0.49905817  0.98709431  0.13709953
   0.98984517  0.50495164  0.88873730
   0.51499867  0.05564056  0.36130941
   0.24847700  0.28075896  0.37037802
   0.73541749  0.76960214  0.91236800
   0.77016790  0.23870981  0.60788601
   0.29157370  0.72867616  0.12786510
   0.21881281  0.26795954  0.62244343
   0.72455354  0.49572181  0.12018501
   0.73730893  0.28364426  0.36992388
   0.49887996  0.75859025  0.50853254
   0.46385231  0.22152029  0.99601240
   0.00003546  0.51326702  0.49821622
   0.48816964  0.76038109  0.73071195
   0.02072033  0.77903781  0.27388850
   0.48740333  0.20935416  0.74863466
   0.01827133  0.68864790  0.99330483
   0.50216017  0.24096070  0.48938211
   0.51284421  0.76829437  0.00529005
   0.49478877  0.27379172  0.25482272
   0.97201344  0.75642392  0.76041562
   0.52155473  0.75779679  0.24105682
   0.01172068  0.01765611  0.26052557
   0.50693783  0.48916479  0.73083219
   0.50863919  0.98313479  0.77213863
   0.99527446  0.53784293  0.23863272
   0.24181510  0.21178329  0.99957216
   0.78008280  0.73968343  0.50200721
   0.23434791  0.75128367  0.50553644
   0.71800646  0.26790798  0.00327980
   0.00620965  0.24533201  0.74032154
   0.51276409  0.51587464  0.25329758
   0.00260923  0.50229140  0.74290314
   0.51603532  0.99684652  0.25140064
   0.26938952  0.25896589  0.50062258
   0.75441514  0.75311638  0.08994173
   0.75788000  0.24133595  0.48132456
   0.25267942  0.71114853  0.98677203
   0.02072087  0.02176410  0.99004200
   0.50879352  0.51009486  0.49174004
   0.50395252  0.49079260  0.99466863
   0.99880430  0.96779828  0.52598709
   0.51451903  0.00879837  0.01226793
   0.00652653  0.22697424  0.50302279
   0.98015494  0.30881439  0.01274953
   0.50469214  0.99159941  0.50656550
   0.03668567  0.27339151  0.23987710
   0.74189045  0.75744715  0.76895728
   0.24925406  0.74550376  0.23637876
   0.74496575  0.26185299  0.74120780
   0.76859605  0.75909970  0.22839390
   0.27124827  0.26994076  0.74398929
   0.77503219  0.25217372  0.25463986
   0.25453939  0.75633135  0.74387777
   0.23465441  0.51337844  0.12640172
   0.51663741  0.98905720  0.62368938
   0.72268159  0.99444455  0.87702994
   0.23398625  0.78075343  0.37920733
   0.26775723  0.50017235  0.87708651
   0.76338488  0.01352309  0.37116106
   0.79702265  0.98322914  0.11805385
   0.23939531  0.52257597  0.61485364
   0.74469204  0.52713584  0.87043743
   0.25198572  0.03381445  0.37915843
   0.73201104  0.70858032  0.63002288
   0.24595264  0.95952079  0.12960805
   0.26627772  0.03580187  0.62629346
   0.51070719  0.50346797  0.11906689
   0.22687565  0.74337948  0.87424897
   0.69620025  0.53909928  0.37819296
   0.26148711  0.01664074  0.24866596
   0.76427039  0.49733111  0.74675126
   0.24113379  0.01403967  0.75222787
   0.74754548  0.49584046  0.24350086
   0.25040492  0.96497345  0.00284413
   0.76252257  0.48619297  0.50005245
   0.25727831  0.01007281  0.50061900
   0.75866159  0.51946847  0.99199082
   0.76330911  0.01518062  0.75618868
   0.25218313  0.49373657  0.25496058
   0.24526924  0.51024756  0.74695246
   0.76327021  0.00060337  0.24604273
   0.25592346  0.50669907  0.48545663
   0.75869136  0.02468937  0.99613129
   0.74783925  0.98447899  0.50521608
   0.25470451  0.46313163  0.01020582
   0.00063838  0.23717097  0.37488290
   0.49547800  0.75849786  0.87437416
   0.50115607  0.23677324  0.61763914
   0.99302537  0.73685634  0.12570479
   0.99855275  0.25792968  0.87349920
   0.49618819  0.76511896  0.37070105
   0.99737999  0.75455345  0.61860480
   0.49457583  0.24808333  0.12692233
   0.16449000  0.35128109  0.06650372
   0.66051210  0.86650422  0.55426580
   0.64340901  0.12094082  0.94808744
   0.14726867  0.61190469  0.44085464
   0.35196972  0.35596656  0.95135098
   0.86186427  0.87960202  0.45703551
   0.85215860  0.14051743  0.04624678
   0.35982074  0.60841439  0.53891748
   0.87136438  0.09819744  0.19596129
   0.35970549  0.60204290  0.69635032
   0.86249965  0.90919434  0.30605250
   0.36606042  0.42497234  0.79526740
   0.14447110  0.60772600  0.30171686
   0.65734264  0.10687835  0.80530963
   0.13585342  0.40968177  0.20111712
   0.64287086  0.91924286  0.70892166
   0.85701799  0.62090015  0.94013257
   0.37833902  0.10692171  0.45141800
   0.86538345  0.37116368  0.54221404
   0.36395617  0.87899946  0.05850581
   0.15911088  0.13316867  0.54689719
   0.63955802  0.61247398  0.04345626
   0.16099941  0.85714719  0.95025253
   0.65626657  0.39009671  0.44447171
   0.64431077  0.39375094  0.30223183
   0.13820894  0.91923211  0.80097136
   0.15389475  0.13499159  0.70354081
   0.64427312  0.60675823  0.19435335
   0.86129678  0.39327875  0.69249312
   0.37729463  0.90327567  0.20171212
   0.37033078  0.10669486  0.30038593
   0.86787999  0.59450995  0.80147514
   0.14219470  0.06010454  0.05607983
   0.64974262  0.58187554  0.54999611
   0.65478867  0.41724938  0.93463652
   0.15108380  0.91411505  0.45086674
   0.34780381  0.07930979  0.95518060
   0.85321044  0.58422736  0.43780435
   0.84911084  0.42506091  0.04906917
   0.35454860  0.91076139  0.55981267
   0.15147299  0.10296887  0.19492260
   0.65649276  0.60916743  0.70464006
   0.17284041  0.89679508  0.29916532
   0.65123557  0.40150167  0.79917938
   0.82978479  0.60951634  0.29996426
   0.33519448  0.12438352  0.80713945
   0.85847056  0.38670549  0.19830995
   0.35504165  0.90815818  0.69659693
   0.86112512  0.93747021  0.94256753
   0.36892667  0.40023004  0.44483417
   0.86524836  0.08399620  0.55469016
   0.36099819  0.58849566  0.05153546
   0.15387855  0.41131056  0.54544850
   0.67245792  0.91644853  0.05123832
   0.14543553  0.54935197  0.95273951
   0.64721117  0.08870072  0.45527416
   0.33795187  0.38765983  0.30602608
   0.85626701  0.89197215  0.81169102
   0.85980919  0.11336446  0.69793576
   0.34745240  0.59977579  0.20417507
   0.16002840  0.39861478  0.68999614
   0.67532556  0.89760519  0.19540652
   0.67521818  0.12069235  0.29717580
   0.16167964  0.62682144  0.79658375
   0.09580967  0.14823314  0.33828817
   0.59812230  0.69140351  0.83344526
   0.59374708  0.32294524  0.66325777
   0.07664028  0.83287505  0.17956581
   0.40948901  0.15450839  0.66084228
   0.88176523  0.65484150  0.15689300
   0.91708831  0.31547095  0.32177968
   0.39311540  0.81014532  0.82650344
   0.09082923  0.18117541  0.92393448
   0.58266655  0.69192475  0.42339659
   0.10250216  0.85470411  0.60175264
   0.57400046  0.33255521  0.07452504
   0.93502659  0.66393825  0.56166976
   0.40508123  0.14127603  0.09241730
   0.90223840  0.33912241  0.91511791
   0.39416564  0.83738213  0.41534654
   0.89179866  0.80804344  0.66456055
   0.42277594  0.34709380  0.16713572
   0.90886726  0.18084899  0.82887417
   0.43769523  0.66873164  0.32415947
   0.08981129  0.34414995  0.82714285
   0.58729560  0.85765170  0.32698107
   0.06235322  0.65508762  0.66622782
   0.58268899  0.16421016  0.17049887
   0.41424383  0.32128122  0.57257475
   0.93868913  0.81944131  0.06764750
   0.91238052  0.15827164  0.42504364
   0.42046795  0.66657440  0.92289374
   0.07827156  0.33349027  0.41510753
   0.55052876  0.87865326  0.91165103
   0.59605528  0.14687478  0.58022788
   0.08807584  0.63477003  0.09387891
Direct configuration=   100
   0.00737813  0.02228973  0.11802319
   0.50255240  0.51202174  0.61305617
   0.51943716  0.46803292  0.85501290
   0.01952008  0.97799356  0.38049072
   0.28767681  0.00067975  0.87474031
   0.99758301  0.50148600  0.37147527
   0.98537390  0.48044993  0.10939790
   0.23774931  0.23797319  0.13789223
   0.75451922  0.99124449  0.61765905
   0.73849277  0.24763129  0.87900537
   0.77302721  0.77131027  0.37742144
   0.24579767  0.25989738  0.87835680
   0.79474704  0.23637289  0.11872315
   0.29339946  0.76698656  0.62168595
   0.00207688  0.96677433  0.86495506
   0.34266610  0.54602131  0.37265845
   0.01371093  0.97052949  0.70068077
   0.95302296  0.49265305  0.61660074
   0.51453547  0.98452232  0.12057956
   0.02232118  0.53068149  0.87220875
   0.49639791  0.01542943  0.39280863
   0.27219555  0.27013521  0.36890403
   0.74154137  0.76270357  0.90741981
   0.82083517  0.26613787  0.63340025
   0.29496766  0.71199339  0.11486481
   0.25952649  0.28588640  0.61600326
   0.73210156  0.48566531  0.12214945
   0.74119030  0.24734602  0.37025103
   0.50379893  0.72014954  0.50577615
   0.49019389  0.25765143  0.99764655
   0.00972633  0.54055556  0.49365075
   0.51821862  0.70298703  0.74361804
   0.98154385  0.74669353  0.27501704
   0.52159714  0.23799645  0.75827821
   0.98060925  0.72443071  0.00435600
   0.51252827  0.25802043  0.47931745
   0.56589716  0.78724149  0.01309425
   0.45616252  0.23036151  0.25015571
   0.99088077  0.76760085  0.75808855
   0.49734702  0.75002500  0.23892367
   0.01128107  0.99387306  0.24316486
   0.51127828  0.44864341  0.73610321
   0.49763410  0.98257110  0.78348184
   0.00532510  0.55382866  0.22960263
   0.21687711  0.20901755  0.00572237
   0.75249037  0.73522040  0.50641287
   0.23195720  0.76180486  0.50764079
   0.74566287  0.25995884  0.00780904
   0.99756012  0.24988738  0.74534438
   0.50443545  0.50015336  0.25127444
   0.01228687  0.53823412  0.74532745
   0.50623560  0.98105009  0.26215888
   0.26996469  0.26083338  0.50354684
   0.73827644  0.73072895  0.10404757
   0.75486189  0.23308223  0.50356558
   0.26653591  0.70592805  0.00665928
   0.01464187  0.02149614  0.98697897
   0.49955015  0.48354026  0.48687935
   0.48419279  0.50550192  0.97759619
   0.01502597  0.96897551  0.51758701
   0.48703231  0.99705366  0.99289580
   0.00709260  0.24865154  0.50541215
   0.00371707  0.32399313  0.99172680
   0.48838119  0.03291443  0.50696099
   0.04923906  0.25761183  0.25361077
   0.72445122  0.74590249  0.75845868
   0.22000980  0.74375189  0.24214929
   0.74603532  0.24710193  0.74282565
   0.75644870  0.75386252  0.23182271
   0.25059245  0.26521775  0.73517465
   0.74719528  0.25513248  0.23719717
   0.24987348  0.77522132  0.75273714
   0.28196970  0.47884983  0.13809807
   0.51144828  0.97719980  0.63321182
   0.72947108  0.00759838  0.87483717
   0.24102147  0.74365176  0.35644225
   0.26856684  0.51037161  0.88436351
   0.76133104  0.00387134  0.37265597
   0.77228993  0.99100733  0.12164416
   0.22980206  0.53362850  0.61142424
   0.76624295  0.50471176  0.87101378
   0.25770241  0.99353245  0.37362451
   0.71511861  0.74439901  0.62360104
   0.23349772  0.96469461  0.13215441
   0.24131189  0.00677628  0.62906192
   0.48380961  0.53875883  0.13182148
   0.23094614  0.77922849  0.86988539
   0.70471790  0.50883683  0.36783388
   0.25531200  0.00126338  0.25566801
   0.76260057  0.51016415  0.74506915
   0.23125294  0.03094617  0.75535112
   0.75372088  0.49837672  0.24739659
   0.26423715  0.96741743  0.00694635
   0.74890537  0.48117848  0.50083380
   0.25577814  0.01321313  0.50093262
   0.75054587  0.51526442  0.99007380
   0.74028381  0.00535950  0.74692205
   0.25933664  0.49991873  0.25778626
   0.26811197  0.51723852  0.74723706
   0.75250251  0.01275787  0.25120533
   0.25028236  0.49867489  0.48711522
   0.75831471  0.02057792  0.00085411
   0.75178712  0.98712219  0.49281262
   0.23695848  0.46645159  0.00911281
   0.99871875  0.23989044  0.37379180
   0.49732750  0.74983583  0.87721198
   0.51299968  0.25807107  0.62041351
   0.01076209  0.74653594  0.12109264
   0.98778163  0.24916389  0.87140859
   0.52423094  0.75694960  0.37875927
   0.00983523  0.75046428  0.62152684
   0.51687967  0.25036552  0.12522777
   0.15247847  0.36787297  0.07214435
   0.65297187  0.89432142  0.54805170
   0.64719782  0.12007398  0.95611070
   0.16361029  0.60793328  0.43172997
   0.34023347  0.36689441  0.94902846
   0.85645364  0.89265888  0.43703154
   0.87783748  0.11366707  0.05101811
   0.34556765  0.60126578  0.54112109
   0.87081445  0.10166339  0.20665216
   0.36306922  0.60612767  0.68765073
   0.84742560  0.90470386  0.30233292
   0.34557708  0.39478330  0.80049641
   0.14577102  0.60138233  0.30477278
   0.64150518  0.10259277  0.79553820
   0.14079542  0.41634789  0.20571180
   0.64744450  0.88868330  0.69823947
   0.85613165  0.61529858  0.93569299
   0.35334519  0.12975226  0.44694619
   0.87720313  0.39333697  0.54273554
   0.37484260  0.85656958  0.05080870
   0.14906915  0.11141192  0.55493099
   0.63194908  0.60416096  0.04120979
   0.15522124  0.88922944  0.95080424
   0.65241757  0.37506809  0.44862914
   0.64873302  0.38013420  0.29407985
   0.14150029  0.90380698  0.79684866
   0.13177437  0.11747483  0.69691166
   0.64820990  0.59394345  0.19351268
   0.88020817  0.40370839  0.70666657
   0.35621963  0.88945294  0.20298341
   0.35606318  0.10146185  0.30894479
   0.86559401  0.62371405  0.79029048
   0.15547310  0.06269121  0.05857839
   0.65340317  0.58510554  0.55647168
   0.64182923  0.40433267  0.94080387
   0.16063225  0.91267818  0.44903173
   0.35066453  0.08327190  0.95466003
   0.84565996  0.59475520  0.44906591
   0.84869758  0.41144479  0.04198625
   0.36673916  0.90992425  0.55598562
   0.15973157  0.09561220  0.19753493
   0.64384677  0.59167111  0.69585528
   0.14759143  0.90093913  0.30951879
   0.67771155  0.39160789  0.80276558
   0.85618733  0.61137521  0.30446987
   0.35148361  0.12368552  0.80551605
   0.85453176  0.40297281  0.18889297
   0.34899997  0.91634505  0.70935843
   0.85601391  0.92855546  0.94432994
   0.35367473  0.39665322  0.43697330
   0.85290768  0.09002605  0.55107759
   0.36111897  0.55957442  0.05636085
   0.13783125  0.40896593  0.54481717
   0.65275030  0.93518594  0.05585393
   0.13055321  0.57564984  0.96336571
   0.64735756  0.09452323  0.44748277
   0.36284378  0.40560590  0.30621918
   0.84420520  0.89851180  0.80842933
   0.84036820  0.10439476  0.69308948
   0.35183111  0.61031425  0.20092684
   0.15813110  0.41333127  0.70058621
   0.66096437  0.91014071  0.19905388
   0.64331100  0.10824057  0.30301751
   0.15270392  0.61235342  0.79686353
   0.11317982  0.16545462  0.33219746
   0.61410339  0.67178112  0.84791233
   0.59559768  0.33570280  0.66949783
   0.08664317  0.81842850  0.17627464
   0.41565435  0.17720532  0.66391280
   0.90891287  0.63717769  0.14940200
   0.92593427  0.33467044  0.32617997
   0.42523160  0.80973322  0.82093641
   0.07555178  0.15061045  0.91307839
   0.60926272  0.66493825  0.42160455
   0.12407899  0.84810193  0.59282442
   0.61631210  0.33057941  0.08460613
   0.93176562  0.68671550  0.56436338
   0.41668759  0.17264423  0.08346180
   0.88898713  0.33145122  0.91917120
   0.41306687  0.83680287  0.41578199
   0.90431764  0.82454202  0.66655636
   0.43582116  0.34753467  0.17121448
   0.89232404  0.16254104  0.82730292
   0.44912076  0.67463643  0.32397815
   0.08191187  0.34471873  0.83256172
   0.60660280  0.85878628  0.33983040
   0.08647781  0.65787241  0.66620186
   0.59038538  0.16417882  0.17564675
   0.43873671  0.35260400  0.57554520
   0.92658650  0.84831252  0.08226615
   0.90861386  0.14531303  0.41325120
   0.40571730  0.64868283  0.90615739
   0.06285165  0.33505253  0.42380674
   0.55479358  0.85477284  0.92389750
   0.59852437  0.16718792  0.58136505
   0.10886496  0.67294526  0.07327371
Direct configuration=   150
   0.00808762  0.03833716  0.13582947
   0.51262695  0.57176628  0.61550178
   0.50773897  0.45985067  0.88127100
   0.00558449  0.00302953  0.37940468
   0.22044443  0.00206985  0.87890343
   0.00046356  0.49959583  0.37962528
   0.02943598  0.53084965  0.08681510
   0.25181909  0.20085238  0.12439377
   0.74477268  0.00051906  0.60896900
   0.68995162  0.24848892  0.86856910
   0.81259261  0.72645254  0.37018806
   0.24055099  0.24731229  0.87483051
   0.83600039  0.28123069  0.11637527
   0.29830522  0.74812757  0.62532098
   0.97138886  0.97469347  0.87555858
   0.33901745  0.50870075  0.38117633
   0.98418962  0.02132999  0.71441035
   0.97252607  0.51778659  0.62067186
   0.48522649  0.00989137  0.13314697
   0.00768346  0.54483530  0.87314426
   0.50828311  0.99236048  0.39374555
   0.27732861  0.24477648  0.36004333
   0.76259108  0.75825272  0.89087237
   0.76618108  0.29223189  0.62056184
   0.26554008  0.72447674  0.12228238
   0.23511084  0.26470621  0.62038718
   0.74739629  0.48933069  0.11923557
   0.73322629  0.26692607  0.37338839
   0.50927739  0.77417922  0.51167845
   0.53017813  0.27944652  0.99753245
   0.00558685  0.55072106  0.49975943
   0.51975803  0.70288335  0.75848051
   0.02008328  0.74639378  0.26726144
   0.50775923  0.24401334  0.75250595
   0.96578254  0.77870563  0.98685187
   0.49663084  0.26302174  0.49226550
   0.54496289  0.74566144  0.01292059
   0.45699989  0.23935377  0.25933054
   0.00200162  0.76629601  0.75407369
   0.50090352  0.74205513  0.22666853
   0.01013610  0.99945630  0.24273104
   0.52519234  0.48481137  0.72697969
   0.47097761  0.98963273  0.76798221
   0.00305313  0.47891769  0.24093978
   0.25543162  0.23425388  0.01134680
   0.74687487  0.73740007  0.47601229
   0.21272453  0.75126916  0.49762193
   0.78955939  0.27194322  0.99298676
   0.00927259  0.25087603  0.74773155
   0.49575820  0.49647608  0.25608535
   0.03296869  0.50511106  0.74409188
   0.51094684  0.97422088  0.26786295
   0.21716270  0.26357233  0.48421657
   0.75275822  0.74721534  0.11750987
   0.73774459  0.22692179  0.51290243
   0.27191455  0.73138122  0.98193121
   0.00759308  0.01529730  0.99973522
   0.51365203  0.51489851  0.49030070
   0.49560012  0.54783220  0.98921564
   0.99792739  0.95349921  0.50412482
   0.52569288  0.00174993  0.97678426
   0.98267996  0.22514030  0.51288755
   0.00671923  0.33801652  0.98408812
   0.52908453  0.01206289  0.52897928
   0.03240552  0.23269396  0.25111511
   0.73742201  0.74808539  0.74280333
   0.25321850  0.75902748  0.24587632
   0.77532611  0.23965720  0.75885033
   0.77178419  0.73790745  0.25939037
   0.26807199  0.27862252  0.75265692
   0.72104038  0.24797926  0.23390160
   0.26272807  0.75965384  0.74115840
   0.27063752  0.42446991  0.11771402
   0.47645599  0.02391227  0.64798998
   0.72074198  0.00544096  0.87073841
   0.26205342  0.75218822  0.37880946
   0.24674273  0.49575156  0.87649856
   0.77738831  0.99393788  0.37762497
   0.74726742  0.99850699  0.13443789
   0.23619581  0.53381898  0.62006473
   0.79591618  0.48668989  0.86831885
   0.26912479  0.99018308  0.38646746
   0.76039343  0.73228372  0.61243984
   0.24598809  0.94926875  0.13448062
   0.22554314  0.01271119  0.62190701
   0.51912049  0.52814505  0.11900896
   0.23678250  0.73173121  0.87957679
   0.71192746  0.50058732  0.37996942
   0.25152915  0.99055325  0.25891196
   0.76557783  0.50359058  0.74181391
   0.23361946  0.02264780  0.75216482
   0.75815987  0.49996141  0.24428617
   0.26785509  0.97677840  0.00161224
   0.75620395  0.48929327  0.50228786
   0.24811025  0.01703271  0.50407585
   0.74760109  0.51233893  0.99376524
   0.72570310  0.99274080  0.73662491
   0.24225058  0.49599495  0.25188544
   0.27317594  0.51186742  0.74851284
   0.74744628  0.00278127  0.24753358
   0.25454115  0.50565122  0.49850728
   0.75832560  0.00615048  0.00566809
   0.75216268  0.99662633  0.48890574
   0.22418640  0.47613345  0.00519622
   0.00836508  0.24727008  0.37414677
   0.49698667  0.73359081  0.86999262
   0.51168962  0.25528613  0.62674678
   0.99904381  0.76491229  0.12634003
   0.97994352  0.24993912  0.87017996
   0.50857106  0.74206971  0.37623768
   0.01260494  0.76005753  0.62566584
   0.52765830  0.25675493  0.12728385
   0.13724129  0.34614539  0.05746615
   0.65763623  0.88877872  0.53578132
   0.67197998  0.11928295  0.95132310
   0.16941253  0.60974463  0.43506317
   0.33886256  0.37023419  0.95113644
   0.86078283  0.87928097  0.43969340
   0.85922573  0.11524818  0.05565201
   0.34118518  0.62031641  0.54600777
   0.84465873  0.10773770  0.19926851
   0.37912889  0.62436089  0.70193935
   0.86467624  0.89925107  0.28111110
   0.38795811  0.41158462  0.79490841
   0.14192384  0.60277743  0.29614738
   0.63209908  0.10225323  0.78673627
   0.16005981  0.37304616  0.19832419
   0.61465599  0.88727222  0.69068084
   0.85110280  0.61793189  0.94339854
   0.35960558  0.11824957  0.44985290
   0.85364019  0.39213615  0.55473192
   0.37399787  0.87166807  0.05256093
   0.16002551  0.13244872  0.55782868
   0.64906147  0.60585596  0.05277300
   0.15676106  0.87117421  0.95015147
   0.65393613  0.37794912  0.45524466
   0.65412700  0.40449042  0.30067156
   0.13003004  0.91639188  0.80012450
   0.14542641  0.12633202  0.69775464
   0.65926077  0.59991503  0.19915661
   0.88148083  0.40115134  0.69873291
   0.36757762  0.89202655  0.20599230
   0.37499468  0.06390143  0.31379377
   0.87433565  0.59382492  0.79991749
   0.17446547  0.06439698  0.06275747
   0.64742977  0.61029047  0.54197474
   0.63296851  0.42505343  0.94446652
   0.15103403  0.91143907  0.45209830
   0.35793464  0.09093264  0.95604853
   0.85219129  0.57796452  0.44012628
   0.85851218  0.42164232  0.04637079
   0.36147329  0.90947998  0.55533815
   0.16263963  0.10155385  0.20756369
   0.66480789  0.61981700  0.69313750
   0.15122964  0.87854259  0.30694873
   0.64788189  0.40106281  0.79010880
   0.87265965  0.60258889  0.30200293
   0.32677692  0.11561921  0.81268217
   0.86527626  0.39905366  0.19108169
   0.33694808  0.91641386  0.69778893
   0.85379382  0.90254268  0.94926851
   0.36338609  0.38719107  0.46018348
   0.86637520  0.09018511  0.54352030
   0.33593902  0.56740113  0.05707562
   0.13563776  0.42087084  0.55303143
   0.64686307  0.91437644  0.05508835
   0.13881161  0.58046353  0.94594586
   0.64585019  0.09501424  0.44291464
   0.36078582  0.40463369  0.29855227
   0.82897301  0.89344172  0.80212926
   0.82513313  0.10352812  0.69061482
   0.35151106  0.59252016  0.19548670
   0.18668357  0.41224667  0.69352391
   0.63906466  0.91285901  0.20136859
   0.65333052  0.10628725  0.30471356
   0.17693875  0.60486150  0.80406140
   0.09873228  0.14830107  0.33662281
   0.58377786  0.62636849  0.83676200
   0.60439277  0.32526781  0.67104196
   0.08024428  0.83892434  0.17839067
   0.40502625  0.19491956  0.66827319
   0.92098192  0.67233348  0.17025454
   0.93321235  0.33389726  0.32485611
   0.41031352  0.81824207  0.81938479
   0.06396010  0.16212477  0.91964567
   0.58777298  0.64448457  0.41732776
   0.10483191  0.85064725  0.58902860
   0.63691884  0.32141724  0.08575027
   0.93776453  0.67359580  0.57354554
   0.42756341  0.19113157  0.07749454
   0.88549024  0.32399191  0.91394607
   0.41422504  0.82193935  0.42536381
   0.89780852  0.83930300  0.66562959
   0.46218643  0.36675673  0.17075899
   0.90674333  0.14672330  0.82229057
   0.41943644  0.68797724  0.31840832
   0.07774015  0.35143856  0.82882040
   0.60833748  0.84091936  0.34607236
   0.10803387  0.65797080  0.67567673
   0.58544620  0.15547763  0.17748542
   0.44291495  0.35650807  0.57932491
   0.91350394  0.87607366  0.09319454
   0.89631357  0.16550648  0.41039070
   0.40154376  0.64958102  0.91555913
   0.08039346  0.34622711  0.42338813
   0.58170734  0.81486313  0.91581579
   0.59779452  0.15532524  0.58444146
   0.10158845  0.71436202  0.07549545
Direct configuration=   200
   0.00939444  0.02641654  0.12534749
   0.53498746  0.53285928  0.61273817
   0.47889959  0.48926298  0.87598827
   0.01520120  0.97206859  0.38743829
   0.20771356  0.00634692  0.87365516
   0.02957887  0.51046261  0.37073035
   0.00931028  0.53213451  0.09422335
   0.27042875  0.22331219  0.15470409
   0.74128789  0.97215313  0.62348673
   0.68861199  0.24427521  0.86991348
   0.80158716  0.74676969  0.36811268
   0.25598856  0.23616013  0.89510937
   0.82020786  0.24947029  0.12435485
   0.26559674  0.79437306  0.63222189
   0.95942239  0.00245629  0.86846852
   0.31162772  0.52913950  0.37813432
   0.97292374  0.99431514  0.73318162
   0.99518398  0.47167656  0.63317942
   0.48396413  0.98638385  0.11978645
   0.97646522  0.49856933  0.88591022
   0.51136591  0.01818547  0.37619475
   0.25805998  0.24002087  0.36077486
   0.78206423  0.73817071  0.86180045
   0.75699948  0.26569757  0.62642582
   0.26373433  0.70960931  0.12531852
   0.23714490  0.28195727  0.61591775
   0.77776140  0.51373651  0.12673578
   0.74494156  0.27006539  0.37543620
   0.47988821  0.77046627  0.51102267
   0.55435369  0.24081528  0.99829131
   0.00835513  0.53053014  0.50796084
   0.51752881  0.74747371  0.72429713
   0.01637886  0.73107806  0.25084366
   0.50121966  0.24779375  0.76053821
   0.97316300  0.74166889  0.98595514
   0.48419248  0.26073028  0.50814367
   0.51682452  0.76782393  0.00559407
   0.47109995  0.24757944  0.25426148
   0.00150933  0.74512858  0.75571634
   0.51107601  0.74604121  0.22808135
   0.01798836  0.98818379  0.26598317
   0.51724051  0.50474897  0.73587702
   0.47222687  0.95066966  0.77662128
   0.00643132  0.46092758  0.25778632
   0.29000001  0.22056568  0.01141344
   0.73901555  0.73662673  0.47765414
   0.21323094  0.77223572  0.51617827
   0.78129204  0.26305948  0.99400814
   0.02058155  0.27614058  0.73631425
   0.50239734  0.52110874  0.25930503
   0.01762363  0.48313224  0.75562190
   0.51432364  0.95796541  0.26731335
   0.24039023  0.25061256  0.48132376
   0.72845609  0.76763097  0.12331187
   0.73295767  0.23185966  0.50017382
   0.24760924  0.73737839  0.00563233
   0.00823757  0.00498495  0.00070729
   0.50385197  0.52822435  0.49315566
   0.48885253  0.49864962  0.99893856
   0.97145879  0.93130791  0.53052244
   0.51661025  0.98158466  0.96881857
   0.97823476  0.27462424  0.50373383
   0.01783805  0.35072446  0.98304379
   0.50072055  0.02971838  0.50420963
   0.02111233  0.23651957  0.24147582
   0.78578903  0.73938055  0.73034445
   0.26846401  0.72295606  0.25818750
   0.75896360  0.24973515  0.74959519
   0.73704285  0.75485900  0.24525356
   0.26824658  0.24353356  0.75304336
   0.73337430  0.24473890  0.23908081
   0.23752244  0.76503582  0.75924715
   0.28605364  0.45337284  0.12493463
   0.47071164  0.00489217  0.63817812
   0.68859041  0.97611212  0.87116307
   0.20382795  0.73938803  0.37410133
   0.24758003  0.47625354  0.86760131
   0.75755467  0.00429461  0.37122969
   0.73389698  0.05012579  0.12431535
   0.24304304  0.53261407  0.63344938
   0.70830168  0.51751034  0.87728264
   0.25986073  0.00596238  0.38400064
   0.75512993  0.72250899  0.61670942
   0.22813395  0.96293384  0.11922611
   0.19073411  0.01221314  0.63069672
   0.53779595  0.51991764  0.11780903
   0.21370141  0.75395116  0.87772715
   0.71669489  0.52008371  0.37545389
   0.27266796  0.99691520  0.26002619
   0.77813098  0.48809702  0.74086022
   0.22358803  0.01190712  0.75134286
   0.75465107  0.49601298  0.24865323
   0.26023842  0.97764764  0.00073803
   0.76506949  0.49245592  0.50356587
   0.25056490  0.01968241  0.50515943
   0.75881758  0.53092634  0.00140824
   0.71971260  0.01158921  0.74053360
   0.24815801  0.46412392  0.24238020
   0.28082215  0.51222170  0.74790874
   0.76547523  0.99344108  0.24327280
   0.26306425  0.51712800  0.51026365
   0.75836249  0.00188848  0.99855147
   0.76372462  0.98392340  0.48953002
   0.24233905  0.48787369  0.99368099
   0.00395529  0.24551228  0.37775883
   0.49332245  0.73264066  0.87393060
   0.49116984  0.27413914  0.63371230
   0.99521038  0.79067987  0.12664612
   0.98948695  0.24957319  0.86182608
   0.50017993  0.74635742  0.36894096
   0.02047241  0.75996491  0.62770716
   0.52758345  0.25725068  0.13023202
   0.15352546  0.38422521  0.05475518
   0.68318546  0.87316289  0.54306697
   0.64986993  0.10213958  0.94900591
   0.15797925  0.60188293  0.44430562
   0.36373869  0.37890774  0.94504363
   0.86582227  0.88325127  0.43376926
   0.86562290  0.11331249  0.04824173
   0.36558169  0.63178722  0.55086272
   0.86967787  0.10141880  0.20248785
   0.37985988  0.61373739  0.69122877
   0.84899291  0.90140663  0.30258220
   0.38259335  0.39760744  0.79820532
   0.15954139  0.58033788  0.29436759
   0.62728883  0.09678127  0.80286024
   0.13264837  0.37794070  0.18740941
   0.61478386  0.89783446  0.69230540
   0.85115462  0.61689914  0.93702534
   0.37464269  0.11546226  0.45268620
   0.86445495  0.39463533  0.55430092
   0.36404998  0.87497515  0.05417755
   0.13203527  0.13025154  0.54078105
   0.64537841  0.62808552  0.04982612
   0.14781274  0.88164258  0.94993965
   0.64604584  0.39853845  0.45378531
   0.63218246  0.40007638  0.29461857
   0.10828824  0.90484129  0.79307745
   0.13980148  0.12673376  0.70289432
   0.65467104  0.60087171  0.20082014
   0.87557635  0.37251167  0.69918673
   0.37304250  0.89127298  0.20240743
   0.38320443  0.10102043  0.30699844
   0.87190256  0.61269400  0.79258733
   0.16546415  0.08504350  0.05397213
   0.64779401  0.60529668  0.54339518
   0.66134439  0.40320255  0.95951420
   0.15144478  0.91135267  0.45677687
   0.34432033  0.06674977  0.94087926
   0.85466156  0.57908868  0.43812623
   0.86987161  0.42627320  0.04701381
   0.35328314  0.92892508  0.56685550
   0.16886245  0.08318183  0.20579888
   0.68318123  0.59731254  0.68717184
   0.16874442  0.89176095  0.31079759
   0.68262653  0.39979804  0.80005237
   0.86295326  0.60810162  0.30081325