Na11Sn2PS12                             
           1
    13.481333    0.000000    0.000000
     0.000000   13.481333    0.000000
     0.000000    0.000000   26.962666
   Na   Sn   P    S 
  88  16   8  96
Direct configuration=     5
   0.03093948  0.03560833  0.11779237
   0.48544236  0.06112273  0.36604969
   0.70627496  0.76113276  0.87281539
   0.74185535  0.26835554  0.39292910
   0.23920446  0.29770483  0.88671544
   0.22160471  0.75948459  0.74578597
   0.76052019  0.74900436  0.16723461
   0.25356119  0.24206245  0.11610114
   0.95025303  0.27059591  0.73548329
   0.70722931  0.03120031  0.12633647
   0.74034533  0.76265109  0.49976136
   0.51059578  0.03173804  0.75650697
   0.47557367  0.03605184  0.99261148
   0.48967926  0.45861051  0.51485604
   0.73269652  0.98243509  0.89139312
   0.73717087  0.96697203  0.37526058
   0.99064284  0.20409179  0.24036239
   0.01020572  0.02335262  0.61430414
   0.22949793  0.74506440  0.25684598
   0.95103554  0.74754291  0.79462045
   0.47496564  0.00252986  0.12681311
   0.21091747  0.76905847  0.38335016
   0.25914854  0.99368899  0.62780704
   0.48452661  0.49432425  0.63567261
   0.48911376  0.79376141  0.01819571
   0.80451676  0.27521211  0.63202799
   0.99003001  0.58629298  0.02141598
   0.00257606  0.53120866  0.49209371
   0.00730111  0.75670553  0.29142176
   0.74035375  0.69843504  0.00474154
   0.48928914  0.96053446  0.49113595
   0.20026737  0.78825559  0.89040799
   0.23063360  0.02556169  0.38370366
   0.75718358  0.46822097  0.87473088
   0.98516365  0.88257054  0.02326806
   0.24451427  0.26493562  0.35609549
   0.75178505  0.76429850  0.75305388
   0.49743121  0.25254596  0.26782089
   0.73392102  0.52916819  0.62518654
   0.47384424  0.51223343  0.87729402
   0.97832405  0.93728832  0.21709961
   0.68665602  0.25106205  0.74507145
   0.46252422  0.02861707  0.89544772
   0.80885161  0.22203152  0.11989489
   0.48177832  0.47244331  0.25227223
   0.00458292  0.03106626  0.49352882
   0.26239996  0.74465991  0.61492328
   0.75598990  0.26795518  0.26190219
   0.20910779  0.25559903  0.63776216
   0.51712731  0.52299456  0.40790390
   0.22428281  0.52379280  0.62963302
   0.48491217  0.72918774  0.24314242
   0.02478620  0.02479804  0.74789171
   0.96032788  0.49230981  0.76351183
   0.84823460  0.46813518  0.38171576
   0.48825637  0.96671403  0.60904700
   0.97097921  0.22728414  0.99741142
   0.21769908  0.25020880  0.49019567
   0.50057324  0.39192261  0.00874697
   0.28443202  0.26203345  0.74854014
   0.98353257  0.41982981  0.13678411
   0.67826864  0.76290530  0.61603839
   0.22339686  0.29209038  0.98978684
   0.36782777  0.71010791  0.48009775
   0.31687699  0.77105407  0.12127866
   0.23602909  0.01368959  0.89674051
   0.47032446  0.55565455  0.12502523
   0.99521939  0.50552870  0.63223693
   0.73636894  0.73115863  0.29344757
   0.73809825  0.22609004  0.00213201
   0.98735143  0.51771831  0.89587510
   0.02524573  0.03519477  0.86510142
   0.19871070  0.53900463  0.11577812
   0.55701329  0.23481429  0.48698346
   0.72226624  0.23238407  0.85596495
   0.49380631  0.77143880  0.75602266
   0.26281472  0.25731112  0.22870395
   0.47997811  0.98381378  0.25356562
   0.98341459  0.45745837  0.26730733
   0.96511269  0.22640992  0.51521689
   0.25276921  0.52294225  0.87951319
   0.96500636  0.99462106  0.35200500
   0.98749634  0.77264662  0.49827996
   0.22920398  0.79104919  0.00926639
   0.75220565  0.98137449  0.63144115
   0.73047648  0.48092976  0.13030264
   0.47575534  0.47399201  0.76231077
   0.24191665  0.54771931  0.38509243
   0.22261894  0.00088867  0.25530433
   0.70585528  0.53884235  0.75446240
   0.26063988  0.01377751  0.75813357
   0.74695103  0.48678377  0.26185869
   0.22351309  0.04013494  0.01189367
   0.75462967  0.52796815  0.48919641
   0.26149196  0.00921134  0.50048732
   0.76244750  0.45541645  0.99271512
   0.75495515  0.99292347  0.76057666
   0.23753789  0.51069025  0.25477853
   0.20940572  0.50223555  0.75768339
   0.72786079  0.99959663  0.25001064
   0.26338048  0.48831912  0.50443949
   0.73557066  0.97080196  0.99495640
   0.75522951  0.01278920  0.50139951
   0.26926300  0.54091743  0.00441218
   0.01157487  0.22170244  0.38267842
   0.46415311  0.76955495  0.88905269
   0.48686317  0.24414184  0.62914005
   0.00382237  0.72280249  0.12977645
   0.99097572  0.27607753  0.86620030
   0.48879747  0.77760831  0.37649410
   0.99503049  0.75863412  0.63796751
   0.51000276  0.27478921  0.13746626
   0.14892648  0.44107340  0.04613009
   0.65122768  0.91089069  0.54638359
   0.63721932  0.08224731  0.94868463
   0.15657048  0.60737052  0.46047424
   0.34262634  0.42129388  0.95276301
   0.85413914  0.90829008  0.44808398
   0.84971723  0.05753985  0.05123474
   0.37536009  0.56642673  0.56749225
   0.85243806  0.09293986  0.19515181
   0.31924277  0.60548350  0.70117328
   0.84458726  0.89375801  0.28753931
   0.32836506  0.41600501  0.81463901
   0.15276608  0.61754691  0.31236610
   0.64179034  0.08957899  0.81254771
   0.12188051  0.41317790  0.19518490
   0.65158741  0.88794499  0.70463931
   0.84311543  0.58991973  0.94561104
   0.37335792  0.11899571  0.46355244
   0.87197154  0.44253545  0.55751088
   0.33087184  0.94772712  0.05776223
   0.14989249  0.11317308  0.54796455
   0.64174049  0.52598252  0.05408947
   0.12215828  0.91996076  0.96060460
   0.65103427  0.41122681  0.44163670
   0.64915342  0.38858367  0.31853084
   0.15686534  0.90684811  0.81731829
   0.16773776  0.10396807  0.69586792
   0.63989708  0.59772837  0.20340776
   0.80825707  0.43884073  0.69852283
   0.32584562  0.92922691  0.19485378
   0.34219646  0.10298490  0.30324759
   0.80519671  0.62186850  0.81589661
   0.11877458  0.14569722  0.05163376
   0.62973020  0.60649776  0.54295579
   0.65433213  0.36356356  0.94101152
   0.14472244  0.91690892  0.44947562
   0.34615719  0.15353205  0.96821430
   0.83583808  0.64938738  0.44225537
   0.87470826  0.37464016  0.04395431
   0.34026044  0.88287176  0.54739466
   0.13204176  0.09156055  0.19866575
   0.59792196  0.64051646  0.69634895
   0.13556388  0.90157681  0.30839858
   0.62742378  0.41440816  0.80647593
   0.87277440  0.58656350  0.30303390
   0.34594233  0.12021789  0.81367738
   0.84301133  0.39050132  0.20057540
   0.37030405  0.90909366  0.71325161
   0.83945515  0.85872729  0.95511667
   0.36666621  0.41165999  0.43720210
   0.84526624  0.08662634  0.56627496
   0.39609419  0.64630516  0.04374492
   0.15001639  0.39971784  0.55279490
   0.67225332  0.84841062  0.05556859
   0.16679974  0.64704499  0.95628415
   0.64498619  0.08275002  0.43979079
   0.32515273  0.39063565  0.29683574
   0.85844876  0.89890919  0.81654724
   0.83989463  0.10173270  0.70698780
   0.32551702  0.60235669  0.18771866
   0.10497174  0.39413320  0.70629461
   0.62042578  0.91906261  0.19132222
   0.63903668  0.10618228  0.31038407
   0.11967702  0.60929079  0.81070958
   0.09428773  0.16654521  0.33238530
   0.53458301  0.86729558  0.84259379
   0.56725037  0.14414742  0.66958567
   0.89414589  0.61949374  0.11231545
   0.38675542  0.32333427  0.67138623
   0.94489977  0.86280332  0.13461746
   0.90109108  0.29356962  0.34608556
   0.56735977  0.68608526  0.92537695
   0.88848044  0.36827699  0.82166376
   0.40869026  0.67604959  0.32805826
   0.91284244  0.66641027  0.68012106
   0.60110444  0.20704770  0.08946665
   0.08880440  0.86339206  0.67260985
   0.41916391  0.36946628  0.09893752
   0.06121804  0.35258238  0.91721617
   0.38499192  0.87755595  0.39612464
   0.90176669  0.84199393  0.59659288
   0.59000193  0.35563901  0.18578749
   0.09433977  0.21571905  0.81543394
   0.58576983  0.85014328  0.32530143
   0.91650150  0.16858398  0.90295823
   0.54642073  0.71321725  0.43923817
   0.08418725  0.67959068  0.59339500
   0.40798599  0.18362665  0.17383070
   0.58634027  0.32641495  0.58703612
   0.04341199  0.67949452  0.19861246
   0.93839846  0.13099368  0.42942767
   0.38627741  0.85377639  0.93792951
   0.08348108  0.34245414  0.41184826
   0.36846540  0.69716641  0.84348431
   0.41094109  0.14795601  0.58154819
   0.11790042  0.72352769  0.08399460
Direct configuration=    10
   0.02778756  0.03324925  0.12327955
   0.48763186  0.06209507  0.36731307
   0.70989232  0.76627488  0.87383036
   0.74524143  0.26739881  0.39531036
   0.23385819  0.30043045  0.88539961
   0.22534430  0.75517563  0.74446753
   0.75548235  0.74751254  0.16831275
   0.25491134  0.23325326  0.11593202
   0.94750900  0.27950716  0.73954334
   0.70436187  0.02910702  0.12692336
   0.73819730  0.76506224  0.49932526
   0.51147266  0.03122980  0.75087564
   0.47850113  0.04061715  0.99186084
   0.48769013  0.46325344  0.51698401
   0.72869789  0.98522822  0.89167691
   0.74282846  0.96821172  0.37342998
   0.99409150  0.20021209  0.23870610
   0.00683830  0.01939751  0.61386916
   0.23730681  0.74551747  0.25530210
   0.95552122  0.75153143  0.79386780
   0.47830211  0.99776465  0.12499974
   0.20832291  0.76817166  0.38289585
   0.25435981  0.99127894  0.62917518
   0.48280463  0.50643476  0.63357453
   0.48826426  0.79313400  0.02055741
   0.80553766  0.27886870  0.63276321
   0.98722644  0.58432761  0.02217129
   0.99336874  0.52744979  0.49491150
   0.01054215  0.75812923  0.29121754
   0.73489356  0.69589756  0.00155084
   0.49366297  0.95406454  0.49179951
   0.19597097  0.78915220  0.89468664
   0.22758616  0.01742621  0.38479386
   0.75687399  0.46880872  0.87539581
   0.98144398  0.87900734  0.02292401
   0.24182062  0.26551656  0.35530950
   0.75213349  0.76692078  0.75242084
   0.49767889  0.24524033  0.26463521
   0.74099730  0.53146955  0.62601591
   0.46866240  0.51038807  0.88092505
   0.97466521  0.93729462  0.21577883
   0.69079834  0.25240092  0.74444227
   0.45644909  0.02380661  0.89871664
   0.81182867  0.21358020  0.11567403
   0.48487588  0.46449467  0.25221944
   0.99707890  0.02276069  0.49143823
   0.26186536  0.74280927  0.61301319
   0.75638214  0.27191554  0.26221001
   0.20736219  0.25105951  0.63551144
   0.52243460  0.52272558  0.40530399
   0.22264256  0.52141650  0.62906717
   0.48577367  0.72966779  0.24131733
   0.02313312  0.02040691  0.74621962
   0.96731202  0.49696470  0.75724681
   0.84243415  0.46765436  0.38373873
   0.48925839  0.96406484  0.60826818
   0.97152605  0.22407302  0.99621613
   0.21650671  0.25207485  0.48791400
   0.50185755  0.38653671  0.00803243
   0.27991974  0.26094570  0.75064481
   0.98326940  0.42402859  0.13527191
   0.68085513  0.76383326  0.61639982
   0.22370579  0.28831541  0.99229762
   0.37190486  0.70940623  0.47946541
   0.31145618  0.76972205  0.11793337
   0.23244559  0.01851080  0.89359356
   0.47347253  0.54931237  0.12788228
   0.99849196  0.50941446  0.63336078
   0.73570075  0.72237502  0.29466305
   0.73946605  0.21815325  0.00077525
   0.99621968  0.51423160  0.89642696
   0.01527649  0.02826464  0.86378020
   0.19389442  0.53549060  0.11771828
   0.54977631  0.23583155  0.48758676
   0.72046375  0.23122442  0.85774016
   0.50036842  0.77206320  0.75638538
   0.26388018  0.25892868  0.22699326
   0.47675701  0.98785551  0.25125090
   0.98588321  0.45583078  0.26900132
   0.96108223  0.23991026  0.51525664
   0.25758170  0.52066519  0.87812886
   0.97621520  0.99108035  0.35348098
   0.99003622  0.77624281  0.50268799
   0.23096391  0.79325395  0.00953455
   0.75180604  0.97373199  0.63128542
   0.73109811  0.47861217  0.12533150
   0.47875518  0.48294333  0.75842854
   0.23995069  0.54714992  0.38616393
   0.22465073  0.00032351  0.25545033
   0.70701159  0.53579945  0.75304012
   0.26195099  0.01179587  0.75684099
   0.74524587  0.48664889  0.26229521
   0.22162104  0.03931083  0.01146841
   0.75628419  0.52885888  0.49055435
   0.25978649  0.01029834  0.49866809
   0.76311616  0.45542751  0.99353260
   0.75563169  0.99195844  0.76069378
   0.23984796  0.50979086  0.25325427
   0.21193039  0.50086337  0.75826854
   0.72812684  0.99841733  0.24807569
   0.26080842  0.49025251  0.50562056
   0.73596898  0.96945320  0.99663772
   0.75258869  0.01689479  0.50149512
   0.26576785  0.54104985  0.00448662
   0.00889222  0.23043182  0.38258390
   0.46956760  0.77441949  0.89136691
   0.48395969  0.24404842  0.62823854
   0.00394455  0.72058003  0.12892350
   0.99308883  0.27566691  0.86464284
   0.48797380  0.78106518  0.37464088
   0.99533389  0.76541804  0.63843625
   0.50553765  0.27663226  0.13746362
   0.14323078  0.44128446  0.04747203
   0.65375299  0.90909429  0.54533826
   0.64771105  0.08197155  0.95154814
   0.15488953  0.60477168  0.46210452
   0.34014910  0.42058285  0.95269544
   0.85514571  0.90535089  0.44972753
   0.84609987  0.05807187  0.05073725
   0.37039261  0.56658794  0.56718043
   0.85862411  0.09186074  0.19656547
   0.32266616  0.60347761  0.70277647
   0.84850328  0.89674614  0.28696075
   0.32226578  0.41794671  0.81362453
   0.15398824  0.61449306  0.31468326
   0.64183661  0.08631810  0.81063314
   0.12477396  0.41882890  0.19486809
   0.64811793  0.88646045  0.70149847
   0.84284543  0.58876203  0.94568724
   0.37483329  0.12767577  0.46229310
   0.86800064  0.44383227  0.55858804
   0.32666323  0.94320470  0.05708344
   0.15130555  0.11485373  0.55089791
   0.63789280  0.52537427  0.05516767
   0.12140112  0.91602073  0.95858569
   0.65906037  0.40744460  0.44262712
   0.64708140  0.38928449  0.31820148
   0.15333519  0.90725498  0.81922902
   0.17049315  0.10386667  0.69904920
   0.63248178  0.60352000  0.20317500
   0.80893047  0.44150515  0.69984024
   0.32897453  0.92792104  0.19359816
   0.34125143  0.10613554  0.30240668
   0.81018939  0.61865031  0.81866620
   0.11741810  0.14516304  0.05042909
   0.63526853  0.60307284  0.54238580
   0.65170261  0.36155267  0.94204284
   0.14989918  0.91713323  0.45047446
   0.33895111  0.15709919  0.97346523
   0.83533072  0.64801801  0.44333549
   0.87034104  0.37773455  0.03965009
   0.33796473  0.88446985  0.54596514
   0.13620840  0.09121216  0.20220141
   0.60173801  0.63974928  0.69821815
   0.13555414  0.89910456  0.31080427
   0.63061444  0.41804717  0.80716157
   0.86777901  0.58571164  0.30374723
   0.34306405  0.11418229  0.81396025
   0.84477323  0.39213899  0.19926048
   0.36681113  0.91242973  0.71281764
   0.84004273  0.86185993  0.95510102
   0.36297839  0.41177298  0.43721393
   0.85144884  0.09482538  0.56496987
   0.39612800  0.64351087  0.04121043
   0.15032456  0.39427862  0.55200265
   0.66604918  0.84715459  0.05705064
   0.17289253  0.64729437  0.95365132
   0.64680420  0.08741164  0.44260047
   0.32798589  0.39511775  0.29565281
   0.85506629  0.90704269  0.82123760
   0.83672454  0.10553616  0.70732139
   0.32574363  0.60109263  0.18605843
   0.11185598  0.39386211  0.70583451
   0.62468613  0.91303397  0.19048908
   0.63641486  0.10308969  0.30838524
   0.11903441  0.61193572  0.81233714
   0.09982880  0.16360146  0.33248738
   0.53809328  0.86928714  0.84481133
   0.57246162  0.14655943  0.67106959
   0.89342162  0.61915542  0.11138267
   0.38411970  0.33290913  0.67397753
   0.94277085  0.86125980  0.13391084
   0.90211175  0.29406638  0.34367177
   0.56481602  0.68220307  0.92474853
   0.89426015  0.37225594  0.82286981
   0.40518917  0.67365654  0.33198277
   0.91781676  0.66119381  0.67902692
   0.59700624  0.20648182  0.08977411
   0.09239156  0.86135219  0.67350843
   0.41688710  0.37081336  0.09733637
   0.05755819  0.35541024  0.91643242
   0.39156246  0.87920260  0.39544290
   0.90234043  0.84364193  0.59839269
   0.58951307  0.35710069  0.18520650
   0.09801142  0.21802216  0.81581419
   0.59237533  0.85292240  0.32394076
   0.91854594  0.17499324  0.90340637
   0.54101146  0.70690612  0.43744305
   0.07873628  0.67759120  0.58976082
   0.40496722  0.19133756  0.17382374
   0.58168713  0.33131000  0.58884743
   0.03973195  0.67507535  0.19728159
   0.94229454  0.13421980  0.42819301
   0.38849447  0.85532171  0.93851329
   0.08210158  0.34465601  0.41397508
   0.37076589  0.69455160  0.84547516
   0.41114214  0.15110541  0.58298205
   0.11816815  0.72457937  0.08255955
Direct configuration=    15
   0.02486772  0.03164454  0.12810252
   0.48920937  0.06191331  0.36934679
   0.71476043  0.77061978  0.87507533
   0.74750286  0.26360170  0.39775583
   0.23007215  0.30175340  0.88337288
   0.22872207  0.75166880  0.74381253
   0.75118811  0.74632520  0.16861270
   0.25558752  0.22511437  0.11510623
   0.94571074  0.28740522  0.74375922
   0.70303475  0.02655986  0.12655395
   0.73500402  0.76764652  0.49851025
   0.51052804  0.03078766  0.74479316
   0.48178269  0.04393079  0.99302515
   0.48865550  0.46660263  0.51879364
   0.72670687  0.98616220  0.88924357
   0.74739401  0.96918484  0.37160502
   0.99765710  0.19788312  0.23777861
   0.00416487  0.01519035  0.61376383
   0.24556506  0.74704511  0.25299934
   0.96247772  0.75435923  0.79290773
   0.48054281  0.99381981  0.12336123
   0.20647758  0.76753172  0.38253134
   0.25001117  0.98930287  0.63022424
   0.48208335  0.51735911  0.63237286
   0.48899017  0.79356325  0.02232751
   0.80465416  0.28205651  0.63265116
   0.98547005  0.58203897  0.02278539
   0.98492939  0.52294011  0.49798431
   0.01235177  0.75735011  0.29056353
   0.72837895  0.69424827  0.99910044
   0.49836509  0.94795261  0.49156887
   0.19327974  0.78936430  0.89792320
   0.22590442  0.01130453  0.38436014
   0.75619693  0.47016208  0.87651802
   0.97691764  0.87556904  0.02323046
   0.24151795  0.26772197  0.35532453
   0.75315844  0.76765950  0.75161922
   0.49832987  0.23743394  0.26146011
   0.74728483  0.53446111  0.62580307
   0.46489593  0.50882577  0.88483180
   0.97261357  0.93756019  0.21548510
   0.69374483  0.25369208  0.74348447
   0.45117990  0.02016940  0.90032495
   0.81421121  0.20665554  0.11169576
   0.48923577  0.45873783  0.25188870
   0.99157197  0.01212797  0.49061900
   0.26169640  0.74111333  0.61111399
   0.75643081  0.27197423  0.26225315
   0.20669957  0.24724992  0.63248416
   0.52725899  0.52258151  0.40166418
   0.22080731  0.51750150  0.62853021
   0.48695182  0.73039471  0.23944557
   0.02047724  0.01522312  0.74475767
   0.97449970  0.50389045  0.75126855
   0.83651655  0.46839211  0.38562556
   0.49071655  0.96275191  0.60805895
   0.97238538  0.22094495  0.99507004
   0.21613932  0.25462833  0.48544044
   0.50402251  0.38171845  0.00765083
   0.27531092  0.25944634  0.75300739
   0.98238770  0.43002665  0.13263882
   0.68384121  0.76380561  0.61689709
   0.22129199  0.28698375  0.99596520
   0.37426143  0.70959885  0.47964071
   0.30526160  0.76852294  0.11510514
   0.22991301  0.02391638  0.88989887
   0.47818967  0.54261438  0.13028157
   0.00141031  0.51245629  0.63397703
   0.73395090  0.71461461  0.29599890
   0.74073273  0.21106737  0.99976357
   0.00439258  0.51529773  0.89612549
   0.00527360  0.02016950  0.86268597
   0.19011903  0.53414655  0.12154396
   0.54221966  0.23718801  0.48883851
   0.71962022  0.23165199  0.86050717
   0.50550881  0.77265966  0.75692681
   0.26309080  0.26091230  0.22598211
   0.47391583  0.99211410  0.24929707
   0.98997811  0.45400525  0.27033733
   0.95730645  0.25497694  0.51547196
   0.25950090  0.52278503  0.87813628
   0.98762474  0.98805262  0.35529582
   0.99312665  0.77967795  0.50702683
   0.23415905  0.79486728  0.00972088
   0.75177877  0.96817984  0.63108874
   0.73335210  0.47538042  0.12210457
   0.47942637  0.49198543  0.75385470
   0.24086744  0.54313438  0.38704190
   0.22789202  0.99960752  0.25575772
   0.70833273  0.53300533  0.75186548
   0.26267234  0.00953216  0.75618293
   0.74333058  0.48726426  0.26223913
   0.21978374  0.03810094  0.01052043
   0.75755668  0.52877304  0.49236243
   0.25806384  0.01180864  0.49712721
   0.76181659  0.45702171  0.99410992
   0.75570012  0.99120509  0.76076489
   0.24112441  0.50960482  0.25118700
   0.21465415  0.50015731  0.75874406
   0.72856514  0.99788782  0.24608901
   0.25839881  0.49223980  0.50662876
   0.73664926  0.96707575  0.99919466
   0.75075885  0.02103188  0.50141115
   0.26237404  0.54137140  0.00465753
   0.00796294  0.24040674  0.38250760
   0.47325988  0.77648594  0.89203439
   0.48189507  0.24263904  0.62881045
   0.00143291  0.71838598  0.12961897
   0.99463065  0.27639494  0.86096857
   0.48930787  0.78063041  0.37104383
   0.99805792  0.76905389  0.63910669
   0.50005696  0.28155459  0.13710317
   0.13711969  0.44023306  0.04797901
   0.65349118  0.90568222  0.54584843
   0.65433777  0.08473333  0.95410544
   0.15415247  0.60428461  0.46404884
   0.33916023  0.41945924  0.95187148
   0.85608731  0.90272731  0.45182996
   0.84300913  0.06055095  0.05030074
   0.36325584  0.56891106  0.56590446
   0.86178197  0.09083989  0.19817778
   0.32514053  0.60062964  0.70497180
   0.85237062  0.89876490  0.28718542
   0.31729574  0.41768911  0.81166697
   0.15381009  0.61076733  0.31575910
   0.64306963  0.08333306  0.80876163
   0.13002412  0.42320700  0.19601576
   0.64560911  0.88676925  0.69925216
   0.84269943  0.58623324  0.94596949
   0.37467030  0.13497450  0.46027606
   0.86304691  0.44482346  0.55874542
   0.32535537  0.93684697  0.05756415
   0.15191662  0.11529074  0.55390643
   0.63451785  0.52530983  0.05391489
   0.12141903  0.91591780  0.95702976
   0.66824506  0.40450536  0.44450045
   0.64486241  0.39100065  0.31756115
   0.14995824  0.90928900  0.81950569
   0.17193246  0.10498925  0.70179491
   0.62688543  0.60811258  0.20444628
   0.81113470  0.44158480  0.70101536
   0.33254295  0.92388492  0.19266619
   0.33966575  0.10929420  0.30153806
   0.81404177  0.61611122  0.82002748
   0.11397181  0.14703763  0.05044650
   0.64041404  0.60080527  0.54245309
   0.64973262  0.35884327  0.94264859
   0.15293929  0.91583068  0.45141767
   0.33143793  0.15835403  0.97734841
   0.83739140  0.64582849  0.44389153
   0.87139559  0.37563536  0.03782852
   0.33681814  0.88511377  0.54532602
   0.13743899  0.09423700  0.20414585
   0.60652729  0.63685564  0.70056745
   0.13535541  0.89576720  0.31340209
   0.63242300  0.42111201  0.80749344
   0.86186221  0.58477610  0.30466474
   0.34132096  0.10879467  0.81477012
   0.84561217  0.39358175  0.19893936
   0.36496083  0.91308516  0.71112999
   0.84089347  0.86383769  0.95361681
   0.35817059  0.41254018  0.43839847
   0.85759826  0.10448252  0.56334578
   0.39343228  0.63877801  0.03951080
   0.14963900  0.38808777  0.55176009
   0.65858553  0.84846958  0.05835407
   0.17685732  0.64605804  0.95075777
   0.64795363  0.09335404  0.44498649
   0.33306765  0.39723028  0.29540032
   0.85125945  0.91531344  0.82526058
   0.83561943  0.11016444  0.70732292
   0.32631473  0.60045065  0.18570979
   0.11876457  0.39405984  0.70511040
   0.62860664  0.90653188  0.19002476
   0.63585448  0.10023257  0.30518768
   0.11792534  0.61380116  0.81338753
   0.10403469  0.15850762  0.33227415
   0.54379020  0.87271455  0.84664567
   0.57751149  0.15060141  0.67242278
   0.89315612  0.61994364  0.10959791
   0.38390497  0.34181646  0.67549687
   0.93941642  0.85839959  0.13205390
   0.90062965  0.29625522  0.33944313
   0.56251140  0.67746584  0.92464116
   0.90120191  0.37322617  0.82512444
   0.40291942  0.67217262  0.33645277
   0.92221015  0.65767238  0.67881912
   0.59381390  0.20331977  0.08976363
   0.09551432  0.85884428  0.67462216
   0.41355760  0.37152037  0.09564800
   0.05702023  0.35799272  0.91743203
   0.39585851  0.88371753  0.39578677
   0.90054773  0.84682400  0.59910383
   0.58886820  0.35760309  0.18485872
   0.09966025  0.21951544  0.81676284
   0.59662798  0.85354652  0.32378235
   0.91782394  0.17934055  0.90387669
   0.53723925  0.70217481  0.43490292
   0.07339451  0.67581178  0.58602351
   0.40371834  0.19601813  0.17410181
   0.57660724  0.33695098  0.59071515
   0.03766616  0.67110820  0.19688671
   0.94472786  0.13808189  0.42643674
   0.38954808  0.85856931  0.93996524
   0.08155030  0.34711295  0.41695534
   0.37426363  0.69192139  0.84774102
   0.41011080  0.15465968  0.58411018
   0.11913191  0.72511596  0.08039625
Direct configuration=    20
   0.02252145  0.03114187  0.13181036
   0.49012387  0.06094141  0.37185506
   0.72054374  0.77340323  0.87660142
   0.74942431  0.25705012  0.40001001
   0.22780686  0.30211577  0.88113110
   0.23166158  0.74909979  0.74404638
   0.74795233  0.74525914  0.16810758
   0.25539540  0.21748548  0.11356174
   0.94512308  0.29367517  0.74749936
   0.70318096  0.02374346  0.12526777
   0.73124007  0.76935412  0.49693970
   0.50858792  0.03081961  0.73881593
   0.48501213  0.04664403  0.99591575
   0.49208348  0.46868828  0.52012635
   0.72539273  0.98633701  0.88537718
   0.75117077  0.97002581  0.37001775
   0.00079452  0.19769500  0.23796180
   0.00229339  0.01160822  0.61390054
   0.25357432  0.74898563  0.25040494
   0.97095613  0.75643849  0.79207992
   0.48173976  0.99059383  0.12181547
   0.20569146  0.76671175  0.38233384
   0.24621975  0.98795924  0.63079053
   0.48231030  0.52673472  0.63204895
   0.49002205  0.79423939  0.02340378
   0.80193113  0.28459161  0.63171551
   0.98488359  0.57943758  0.02305527
   0.97916446  0.51883571  0.50081054
   0.01268716  0.75420948  0.28949532
   0.72087318  0.69374515  0.99736528
   0.50255893  0.94231449  0.49034503
   0.19256566  0.78968470  0.89931429
   0.22605083  0.00783474  0.38221400
   0.75526186  0.47192827  0.87803168
   0.97247194  0.87231998  0.02404530
   0.24351726  0.27147360  0.35598497
   0.75481854  0.76616304  0.75080391
   0.49936601  0.22964653  0.25850126
   0.75261727  0.53802010  0.62487211
   0.46290484  0.50747799  0.88878369
   0.97233338  0.93737799  0.21605828
   0.69534332  0.25503248  0.74243839
   0.44700833  0.01836744  0.90017485
   0.81599260  0.20202572  0.10833026
   0.49456996  0.45552328  0.25139685
   0.98833502  0.00193048  0.49081405
   0.26158681  0.73944076  0.60911811
   0.75617676  0.26839378  0.26194871
   0.20746008  0.24432322  0.62901178
   0.53171161  0.52142688  0.39725875
   0.21923043  0.51208101  0.62830479
   0.48799975  0.73148323  0.23775713
   0.01718465  0.00980652  0.74354099
   0.98138093  0.51257749  0.74623109
   0.83059005  0.47007973  0.38714753
   0.49233482  0.96284144  0.60835011
   0.97354944  0.21830487  0.99389788
   0.21645137  0.25730350  0.48301988
   0.50651305  0.37754102  0.00754271
   0.27102335  0.25769068  0.75523848
   0.98143148  0.43732217  0.12932468
   0.68707883  0.76259116  0.61751564
   0.21563026  0.28955781  0.00041006
   0.37455532  0.71072655  0.48058545
   0.29874130  0.76711589  0.11295726
   0.22772677  0.02971690  0.88602730
   0.48414669  0.53607820  0.13217446
   0.00409914  0.51369388  0.63379377
   0.73056733  0.70938614  0.29737210
   0.74283121  0.20717909  0.99949741
   0.01124667  0.52186368  0.89493614
   0.99554150  0.01206618  0.86223751
   0.18737827  0.53482454  0.12615496
   0.53457368  0.23914052  0.49080560
   0.71945571  0.23311769  0.86400723
   0.50906572  0.77334897  0.75775310
   0.26036571  0.26350892  0.22594077
   0.47212206  0.99641681  0.24776832
   0.99486762  0.45254431  0.27147029
   0.95396992  0.27064529  0.51566280
   0.25861562  0.52874848  0.87935045
   0.99819695  0.98603869  0.35749932
   0.99649706  0.78256539  0.51099194
   0.23816513  0.79520897  0.00940983
   0.75248531  0.96585664  0.63068859
   0.73719716  0.47115671  0.12063556
   0.47811726  0.50030104  0.74920784
   0.24406936  0.53625167  0.38787562
   0.23204098  0.99853456  0.25624811
   0.71002234  0.53064930  0.75127390
   0.26262619  0.00702403  0.75631558
   0.74125257  0.48849932  0.26161253
   0.21778692  0.03631931  0.00933761
   0.75873257  0.52768151  0.49438281
   0.25678633  0.01417830  0.49609060
   0.75857744  0.45978241  0.99441334
   0.75533874  0.99087035  0.76063413
   0.24170409  0.51014519  0.24895194
   0.21699545  0.50047659  0.75904227
   0.72945495  0.99771792  0.24415997
   0.25590966  0.49385777  0.50740101
   0.73743234  0.96361277  0.00231572
   0.75013555  0.02485498  0.50147543
   0.25900809  0.54144421  0.00488536
   0.00944927  0.24739848  0.38112116
   0.47419778  0.77552456  0.89147405
   0.48183706  0.24318540  0.63175718
   0.99866176  0.71685564  0.13053277
   0.99616070  0.27900275  0.85863302
   0.49184577  0.77782512  0.36736192
   0.00157525  0.76738642  0.63908400
   0.49609546  0.28780573  0.13588360
   0.13138680  0.43892235  0.04785050
   0.65147134  0.90223348  0.54762102
   0.65632922  0.08878459  0.95569324
   0.15330580  0.60605897  0.46601200
   0.33904477  0.41795059  0.95080891
   0.85597686  0.90088670  0.45420178
   0.84143311  0.06432689  0.05024168
   0.35547914  0.57382772  0.56432575
   0.86157199  0.09030693  0.19956909
   0.32684266  0.59763404  0.70717496
   0.85534272  0.89993204  0.28817349
   0.31545167  0.41437558  0.80982782
   0.15267298  0.60666520  0.31523490
   0.64415305  0.08151206  0.80710938
   0.13548740  0.42503725  0.19798641
   0.64431631  0.88843628  0.69815217
   0.84291659  0.58286558  0.94644119
   0.37216065  0.13979975  0.45782184
   0.85781580  0.44488317  0.55845094
   0.32605457  0.93038671  0.05879138
   0.15223315  0.11387298  0.55639868
   0.63165691  0.52594307  0.05063619
   0.12183699  0.91986165  0.95628553
   0.67746619  0.40259335  0.44698393
   0.64239619  0.39322709  0.31678101
   0.14685138  0.91225946  0.81804006
   0.17138894  0.10772382  0.70363169
   0.62357067  0.61086986  0.20708644
   0.81566100  0.43844482  0.70142339
   0.33564386  0.91767042  0.19239736
   0.33806176  0.11207147  0.30071369
   0.81661256  0.61474267  0.81954314
   0.10927896  0.14971998  0.05164441
   0.64331080  0.60086623  0.54384272
   0.64894718  0.35592062  0.94289303
   0.15256991  0.91212368  0.45202442
   0.32593422  0.15693106  0.97953385
   0.84173204  0.64304110  0.44411057
   0.87734109  0.36865870  0.03845441
   0.33688469  0.88521567  0.54537422
   0.13659781  0.09948887  0.20441942
   0.61137711  0.63307781  0.70275566
   0.13642826  0.89240061  0.31525972
   0.63219698  0.42302712  0.80743675
   0.85652814  0.58339268  0.30584518