Na88 Ge16 P8 S96
1.0
13.342216 0.000000 0.000000
0.000000 13.342216 0.000000
0.000000 0.000000 26.684433
Na Ge P S
88 16 8 96
Direct configuration=      1
0.00727351 0.99720633 0.12527589
0.53303361 0.50918477 0.63421601
0.53225095 0.47935462 0.87744675
0.04331166 0.01750642 0.37296077
0.71376503 0.97010304 0.87548636
0.96104066 0.54475875 0.37653028
0.98699901 0.48397002 0.13528641
0.23769105 0.24151718 0.13166473
0.73915438 0.97386933 0.61445641
0.73352886 0.25201107 0.75180275
0.76291010 0.79043563 0.36141216
0.25538202 0.24946928 0.88259366
0.74341118 0.24901004 0.10633502
0.25551999 0.75993581 0.61576139
0.01225225 0.99745260 0.86424914
0.47496105 0.50899964 0.38688834
0.98574700 0.03996519 0.60807596
0.00585047 0.51836441 0.62164403
0.51191538 0.97133395 0.11260134
0.04018991 0.50009275 0.87457334
0.52201100 0.99394816 0.37139492
0.26578830 0.24024143 0.38078092
0.78097269 0.75204374 0.85404833
0.73893865 0.25618819 0.62086397
0.27604399 0.72372930 0.11248265
0.21469150 0.25781914 0.62739421
0.75551153 0.56623673 0.12519589
0.73383358 0.25074216 0.35953201
0.51319905 0.72906555 0.50656827
0.50202959 0.24194452 0.99745696
0.00557104 0.79709520 0.49501885
0.53385863 0.71139972 0.74106897
0.99461209 0.75470061 0.25711498
0.48253135 0.22530292 0.76579755
0.01467002 0.75948390 0.99772948
0.49297748 0.22513241 0.50130613
0.49099952 0.74149420 0.02039726
0.63531722 0.28678170 0.23157432
0.00290605 0.76645585 0.76302941
0.46834689 0.73193935 0.23071648
0.00171747 0.02356908 0.25307104
0.51467257 0.48017165 0.75324895
0.46611466 0.96075108 0.78040302
0.96669399 0.49973420 0.25065590
0.22550875 0.21751017 0.00415435
0.77510191 0.74864507 0.52557849
0.26828381 0.75495110 0.45432873
0.80956680 0.25962716 0.99343161
0.97677494 0.01182282 0.74013924
0.45785701 0.46499234 0.25931404
0.01213452 0.47373518 0.76397165
0.51974069 0.02589374 0.23844995
0.22580458 0.27731522 0.49581940
0.74681855 0.75681849 0.99704857
0.76466980 0.25279895 0.47738197
0.26657147 0.73213914 0.97222326
0.99614691 0.03273999 0.98653938
0.48698554 0.47357462 0.51430560
0.51680332 0.46673038 0.99680386
0.99595029 0.05129734 0.49055436
0.49685455 0.98003656 0.97016316
0.00020146 0.44300045 0.50318572
0.01613510 0.48593824 0.00802048
0.49467727 0.99959813 0.49862307
0.28207141 0.24172245 0.23884362
0.78277199 0.76802495 0.72153908
0.24751422 0.75253706 0.27116513
0.01620361 0.24432760 0.74858635
0.74418452 0.74233413 0.23402484
0.26601984 0.23864956 0.74023526
0.91694533 0.25444816 0.25660874
0.25204442 0.73980251 0.76642354
0.22207290 0.48942449 0.13381743
0.48134177 0.98753342 0.65611484
0.73536890 0.24537675 0.88085614
0.21568708 0.51937837 0.37532911
0.28076130 0.50353980 0.88485546
0.80763155 0.02757854 0.37533903
0.75240607 0.00475115 0.12444864
0.27367331 0.49140633 0.62270550
0.79444159 0.49753231 0.87146102
0.28505539 0.97002814 0.38205819
0.78292182 0.52634292 0.62847843
0.24616101 0.95719518 0.12841934
0.22859369 0.99218447 0.63657770
0.45823506 0.47745421 0.12872557
0.27816242 0.92936205 0.88020994
0.71443900 0.51200022 0.38839704
0.26120319 0.00491182 0.25880807
0.76933422 0.50741823 0.75191842
0.23483550 0.99495660 0.74847531
0.72144299 0.50466846 0.25565596
0.23193082 0.97396413 0.00073070
0.74420749 0.47547676 0.50637448
0.25011606 0.03150395 0.51098108
0.75583100 0.50616435 0.99968030
0.72594176 0.00567316 0.74930761
0.23036489 0.49839744 0.24921100
0.27194777 0.48407854 0.75453433
0.77601700 0.01021954 0.24628007
0.23558724 0.52267013 0.49812065
0.73678263 0.01867041 0.99049656
0.73854508 0.99894115 0.49397327
0.24819197 0.46339733 0.00374340
0.00077471 0.26425735 0.37829124
0.51577028 0.72736951 0.88066132
0.48861510 0.25422492 0.62904067
0.00949491 0.74838848 0.12158868
0.00476577 0.25561148 0.87382836
0.49767468 0.74569178 0.36388084
0.99697439 0.76387667 0.62907310
0.49250607 0.23461909 0.12354609
0.15777900 0.37177275 0.05594527
0.64171599 0.89806940 0.54189833
0.63532052 0.11794082 0.94785258
0.13069246 0.60421741 0.45333394
0.34056814 0.37062371 0.94806102
0.85002643 0.89524313 0.44819380
0.82804460 0.10198549 0.04421079
0.34909285 0.62368035 0.54462261
0.87716660 0.11021380 0.19163341
0.37010926 0.58542777 0.70328284
0.86761754 0.90795981 0.29810363
0.37392416 0.38156645 0.80138531
0.13118872 0.59348508 0.29808697
0.62463548 0.09302352 0.80303852
0.11508932 0.40069276 0.20571976
0.62246776 0.89421793 0.71021756
0.84924524 0.61061615 0.95227965
0.34458344 0.11919091 0.45850937
0.83563984 0.38531454 0.56056365
0.33753470 0.87825945 0.04614613
0.15662232 0.13744100 0.55327106
0.64080234 0.60483584 0.03926445
0.14673239 0.88128575 0.94852542
0.63070686 0.38759279 0.45401328
0.62685715 0.42114931 0.31300357
0.13500017 0.90240911 0.80168484
0.12759231 0.10179366 0.69919246
0.62598943 0.60217498 0.19973146
0.86377520 0.42201402 0.70080500
0.36612722 0.90273138 0.20870929
0.35334013 0.11438600 0.30537848
0.87165042 0.60711185 0.79925461
0.14905756 0.06325471 0.05979087
0.65393386 0.58861385 0.55249754
0.67030738 0.39432534 0.94661187
0.15760686 0.93290403 0.45814512
0.32525509 0.07078077 0.95162766
0.84224940 0.56712690 0.45488801
0.84437575 0.41101719 0.05461788
0.35644990 0.94092857 0.55585273
0.16603605 0.08658556 0.20327817
0.67502429 0.58447264 0.70043643
0.16150255 0.91155876 0.30920829
0.68871588 0.41301713 0.80275609
0.82549451 0.60594507 0.29745230
0.32244602 0.08815217 0.80395319
0.81509162 0.39470776 0.20650495
0.32730621 0.89821838 0.70241899
0.84395042 0.92862038 0.94359336
0.32643052 0.43309025 0.44829602
0.82981672 0.09278158 0.54127400
0.34589103 0.57526699 0.04066163
0.15981577 0.42393786 0.55458119
0.63759617 0.92513002 0.04124453
0.15492302 0.56472730 0.95569855
0.64838175 0.09679496 0.44745184
0.30933846 0.38911579 0.29905020
0.82868698 0.90428302 0.79462740
0.81727824 0.09136212 0.69668349
0.33514685 0.59078184 0.20286500
0.17242285 0.40422430 0.69924295
0.67498323 0.91508699 0.19889379
0.68249630 0.10686033 0.29488762
0.17612768 0.57314344 0.80540653
0.07998431 0.19801702 0.32571276
0.60772748 0.64522077 0.84011317
0.56931104 0.32516555 0.68545944
0.10047011 0.82605287 0.17404165
0.37972419 0.16746202 0.65992803
0.91627308 0.66620753 0.17246291
0.89598593 0.36105670 0.34158936
0.41497377 0.78244587 0.82689602
0.08442267 0.16211782 0.92091567
0.60346753 0.66813276 0.40105519
0.08157593 0.85881609 0.58614398
0.57061950 0.34241941 0.09010379
0.92595595 0.67487983 0.58186299
0.39888438 0.14568045 0.08213751
0.93854624 0.35345926 0.92301651
0.43125806 0.83437405 0.41699705
0.90146075 0.86173922 0.66717909
0.41247451 0.30719079 0.18067325
0.89324137 0.17570511 0.83290984
0.38790775 0.66335753 0.33707372
0.10505512 0.32691230 0.83165670
0.57328104 0.82913677 0.31048273
0.08323062 0.67628864 0.67748128
0.60370626 0.13510858 0.15259408
0.40942995 0.35403027 0.58213575
0.92274477 0.83875402 0.07945972
0.90234685 0.17639989 0.42458111
0.42692271 0.62277398 0.91789994
0.10390187 0.34542955 0.42036258
0.58632411 0.83561077 0.92139321
0.58331805 0.16261795 0.59560339
0.08782764 0.64771325 0.07807488
Direct configuration=      2
0.99172960 0.99579635 0.12749649
0.53357039 0.50111465 0.62599583
0.54585395 0.45908517 0.88405531
0.05833999 0.99975377 0.37064706
0.68422906 0.00207105 0.87477410
0.00750636 0.53135680 0.38344316
0.01083413 0.49149615 0.12382907
0.18880037 0.21010026 0.12353220
0.74560240 0.96202621 0.63241653
0.74715125 0.25250786 0.75674476
0.75022644 0.77466083 0.37441812
0.26332202 0.22942489 0.87479185
0.76595157 0.28504481 0.12220227
0.26387404 0.74385406 0.61149866
0.99328214 0.97671859 0.87919778
0.46943467 0.46378890 0.35991080
0.98803855 0.03761799 0.61761499
0.05589094 0.48977095 0.63643103
0.50131030 0.00042077 0.11823566
0.04698721 0.50711237 0.89203084
0.53942422 0.02213762 0.35777042
0.23881643 0.24482044 0.36234373
0.76185389 0.74521484 0.86829575
0.75818844 0.26770379 0.63363657
0.24490602 0.72304874 0.11766365
0.21519082 0.26462155 0.61827889
0.74435366 0.56097485 0.13446868
0.71722818 0.26435146 0.37115881
0.52081913 0.75270947 0.50807885
0.47886965 0.20538367 0.00414800
0.01388778 0.76947101 0.49512855
0.50146348 0.75064710 0.74486276
0.01622238 0.76044588 0.24986979
0.48308658 0.20057718 0.74380565
0.98500546 0.76828236 0.99124558
0.51338194 0.24071140 0.49654047
0.51612590 0.74342105 0.02318848
0.64055917 0.26592364 0.24730148
0.99101294 0.76435233 0.75447965
0.49869508 0.72679327 0.23664371
0.02884558 0.00814220 0.24553014
0.52662332 0.49965660 0.75059487
0.50492838 0.98956637 0.79846611
0.95751048 0.49359711 0.24243333
0.24297992 0.22075754 0.00966130
0.74757871 0.74388086 0.50465455
0.26588205 0.76158772 0.47502721
0.80707213 0.28437120 0.00280490
0.97150252 0.99179492 0.74219224
0.46449575 0.47601639 0.24395973
0.03387781 0.49485666 0.76610277
0.51336601 0.02583926 0.24685868
0.22141887 0.25538199 0.49307318
0.76510678 0.77364484 0.99893237
0.75590096 0.23006259 0.50525921
0.27165362 0.73175903 0.99179570
0.98078246 0.03936234 0.99793945
0.48457745 0.49933630 0.49959092
0.49825429 0.48999558 0.00877237
0.99639575 0.04438018 0.49381576
0.49233513 0.96602148 0.99109337
0.98239457 0.47401277 0.49956589
0.00809689 0.49930900 0.00198810
0.50136871 0.98079666 0.47884929
0.23423530 0.24341323 0.25486093
0.77094649 0.76387476 0.72451725
0.26778717 0.73677709 0.26170843
0.01239842 0.26026170 0.73293541
0.72549882 0.73491367 0.24790723
0.23883959 0.26069892 0.76432462
0.95448802 0.25468724 0.23732130
0.24154101 0.75186024 0.75099101
0.23730728 0.48092708 0.12765710
0.48302210 0.00097979 0.64838653
0.73866622 0.25758136 0.87751381
0.20755562 0.51520678 0.37623957
0.31380549 0.52020703 0.87347572
0.78715064 0.03516375 0.36571164
0.75327177 0.97783746 0.11547769
0.31867097 0.48438605 0.62200214
0.76778994 0.52072820 0.88464449
0.28868381 0.95607878 0.38080193
0.79881276 0.53583613 0.62286093
0.25393199 0.96431953 0.12833121
0.22996171 0.99280543 0.62416834
0.50865910 0.51281769 0.13303814
0.27505554 0.94559868 0.87347573
0.75318049 0.50248325 0.37923192
0.26093097 0.98136713 0.24865134
0.77101802 0.48860582 0.74789308
0.22031693 0.00236758 0.75045923
0.71474867 0.48985325 0.25736773
0.24773837 0.97629522 0.00822224
0.74077769 0.49262568 0.51150936
0.25507722 0.01933613 0.50086434
0.75260878 0.53850921 0.00677096
0.72953978 0.01079453 0.75028369
0.20032920 0.48189116 0.24970864
0.26630532 0.50820695 0.75002824
0.76890637 0.00081685 0.24637249
0.23431141 0.51646124 0.50091327
0.73399943 0.03314322 0.00506967
0.74966661 0.99527585 0.49449918
0.26358970 0.46908609 0.01112687
0.99315947 0.27586414 0.37224482
0.50700561 0.72622807 0.87836579
0.48878958 0.24900659 0.62198790
0.98688922 0.73148805 0.12028282
0.99379113 0.23877878 0.87490685
0.51560294 0.74353378 0.37032729
0.01283373 0.76275218 0.62721351
0.49827990 0.24812997 0.12948584
0.14519434 0.38585725 0.05316666
0.65094105 0.89748602 0.53977367
0.64211017 0.11772992 0.95336758
0.12514280 0.61169055 0.46297946
0.36660796 0.36846598 0.96769788
0.86230952 0.89892539 0.45104180
0.83965098 0.12096766 0.05254711
0.34730669 0.62360237 0.54142627
0.87554919 0.09959123 0.19474101
0.36509789 0.61334964 0.70114826
0.87584854 0.90279258 0.28976704
0.37105646 0.41011847 0.79552941
0.10086228 0.59387747 0.29582602
0.64012380 0.11837153 0.79883335
0.12522408 0.37206438 0.19372735
0.62204690 0.91798600 0.70645690
0.86646767 0.62756899 0.95430720
0.34038285 0.12100873 0.44888068
0.84897783 0.38366890 0.54907982
0.35104153 0.87906246 0.05433740
0.13929881 0.11438402 0.54265049
0.64498976 0.61803491 0.05133430
0.14645104 0.88373324 0.96065697
0.66003560 0.37950106 0.45572710
0.61876971 0.39330519 0.31272917
0.11377757 0.89942911 0.79550733
0.13667669 0.11034089 0.69482087
0.61044841 0.56974632 0.20247273
0.86618659 0.38649809 0.70764868
0.37138643 0.89053329 0.20325176
0.36045732 0.07243826 0.30240165
0.86193392 0.60822698 0.78989235
0.13923255 0.05716196 0.05995164
0.63783443 0.59673193 0.55617184
0.66864328 0.42619396 0.95875403
0.15065717 0.92440155 0.45204549
0.33963155 0.07044545 0.95562348
0.83886834 0.59290557 0.46385506
0.84551175 0.44894120 0.06052541
0.35029495 0.92381240 0.54560228
0.18395909 0.08914270 0.19727883
0.67023147 0.57527860 0.70063525
0.15981791 0.89168093 0.29949251
0.67410068 0.41043107 0.79826407
0.81555284 0.59523094 0.29792449
0.32266774 0.08997615 0.80042835
0.79509882 0.38469680 0.20570838
0.31721160 0.90993479 0.69821342
0.82693624 0.94119185 0.95051337
0.31752268 0.42330406 0.45167217
0.83614615 0.07585925 0.54991104
0.34860372 0.58099983 0.05896835
0.15607480 0.42482949 0.55626814
0.64288700 0.91817417 0.04835298
0.17868823 0.56968384 0.95624681
0.66280630 0.08153589 0.43857949
0.30441115 0.40273504 0.30091688
0.83056409 0.91026261 0.79868044
0.81741469 0.09386008 0.69490951
0.29867459 0.57803609 0.20620049
0.16321701 0.40803155 0.70224608
0.65870317 0.91651432 0.20101770
0.68449857 0.11433174 0.29535119
0.17615294 0.59303157 0.80512445
0.07673893 0.18764465 0.31239656
0.59306079 0.64089829 0.82666228
0.58184390 0.32474479 0.67046422
0.08821486 0.82280113 0.15772968
0.38144558 0.17668887 0.66455306
0.90904078 0.65473162 0.17316666
0.89993723 0.36743172 0.33461585
0.40128958 0.79120960 0.83539942
0.08922343 0.16236924 0.91837150
0.59840396 0.65476285 0.41603606
0.09199744 0.84803832 0.57643653
0.57618662 0.33322674 0.07409257
0.92310350 0.66793569 0.58383550
0.38592043 0.16170088 0.09134438
0.91789771 0.35414705 0.91160363
0.43553741 0.83962218 0.41861208
0.91857459 0.85530682 0.66595872
0.42166034 0.33310488 0.17918492
0.90836955 0.14529590 0.83389735
0.41505305 0.64867881 0.32905872
0.09455301 0.33725777 0.83230137
0.58244733 0.82124449 0.31258042
0.09578735 0.67737167 0.66984291
0.59014641 0.15409568 0.16154906
0.43211360 0.34175852 0.57005898
0.89437357 0.83150709 0.08255449
0.91637969 0.16468427 0.40567896
0.44082018 0.63492965 0.93000100
0.08270709 0.35771233 0.41881619
0.59465814 0.82957577 0.91334601
0.57575807 0.13627746 0.58850753
0.07062397 0.64686062 0.06869726
Direct configuration=      3
0.00201581 0.00646291 0.11226817
0.54952736 0.49017050 0.61748944
0.50397775 0.46618048 0.87857267
0.02410638 0.97012458 0.35785750
0.74480643 0.01160398 0.88377282
0.96449652 0.51661008 0.37272970
0.01014850 0.48443116 0.11411775
0.19154119 0.24707502 0.12474979
0.72156660 0.95548662 0.62840209
0.77941735 0.26280605 0.74823363
0.78906245 0.72004176 0.37934754
0.27318240 0.21915980 0.88907285
0.73892281 0.24840620 0.12089928
0.28734588 0.76507459 0.62366767
0.97392324 0.99629680 0.87810446
0.47600579 0.47705650 0.38155627
0.00176980 0.00051727 0.62781569
0.01144438 0.50611677 0.62488740
0.49259283 0.96662337 0.11619694
0.04530405 0.49829143 0.86308856
0.51374727 0.01308243 0.36360489
0.27207061 0.23845172 0.38026677
0.76215466 0.74252390 0.87412170
0.75616159 0.21867753 0.62310143
0.24869429 0.72689354 0.13412583
0.23722108 0.25597609 0.60355896
0.77201843 0.55157631 0.13474914
0.74269292 0.23782740 0.37794056
0.48609737 0.74869502 0.50095345
0.47833550 0.21490635 0.00549074
0.01312741 0.74906623 0.48910159
0.46227267 0.74609941 0.75182740
0.00432299 0.75257372 0.25052806
0.49368483 0.23867086 0.75461315
0.98707782 0.78843083 0.00200352
0.49366764 0.25105109 0.48459950
0.50134697 0.76210716 0.99791399
0.65218152 0.25484279 0.23605156
0.00189710 0.73352548 0.75537375
0.50440298 0.77176635 0.25859469
0.01555059 0.00232137 0.25395740
0.52480668 0.49318746 0.75328484
0.47076634 0.95309422 0.78668131
0.95246331 0.50756352 0.25482631
0.21670809 0.22801721 0.99068852
0.76939460 0.72336442 0.50519843
0.26505791 0.75837474 0.48659055
0.76189374 0.28550551 0.99941316
0.97500039 0.00941824 0.76821978
0.45557267 0.50228359 0.25344044
0.01766590 0.49417609 0.74495459
0.51461501 0.03091890 0.22938411
0.21153227 0.28758226 0.48320751
0.72553615 0.79833751 0.01028245
0.78945136 0.23490741 0.50433659
0.22920301 0.71470537 0.00653593
0.99964410 0.05304890 0.00019552
0.50706666 0.52886323 0.48611954
0.52548327 0.50893167 0.01170221
0.99855473 0.03708098 0.47973292
0.51105053 0.99012476 0.95867875
0.99925940 0.48248839 0.49915346
0.98921623 0.48407418 0.99423010
0.49997060 0.00827659 0.48813889
0.25350285 0.23038098 0.24325895
0.72594702 0.76378772 0.73886469
0.25193661 0.69954027 0.27704319
0.99275486 0.24609723 0.74144315
0.76924674 0.73933684 0.23593871
0.25582063 0.24889890 0.74368707
0.94513539 0.25992436 0.24090952
0.21775967 0.77581179 0.74478513
0.27791745 0.44005332 0.12370120
0.46867612 0.98695790 0.61203852
0.73789887 0.23617722 0.87375885
0.26396545 0.53827336 0.37166575
0.29142046 0.56598734 0.88179545
0.79322654 0.99786171 0.37566976
0.77328669 0.96527227 0.12644643
0.27695293 0.48815208 0.62842612
0.78418951 0.49587719 0.87780625
0.28304281 0.94754330 0.36243931
0.78331002 0.56326073 0.62541399
0.25621390 0.99209366 0.12871247
0.24990324 0.00803649 0.62179959
0.53725048 0.51207283 0.12186291
0.22784945 0.98847187 0.87867698
0.71374548 0.48973557 0.37289073
0.27775339 0.97032333 0.24854253
0.76493819 0.49890412 0.75271959
0.23385225 0.01361460 0.75028651
0.70889825 0.49954177 0.26030857
0.24764800 0.96880094 0.00560623
0.74733896 0.48756034 0.49928279
0.24747597 0.00772265 0.49150887
0.76056984 0.54436777 0.01010427
0.72071161 0.01330998 0.75346132
0.20116395 0.48897415 0.25043752
0.27927981 0.51440487 0.75346905
0.75740670 0.98978979 0.24862534
0.25243902 0.52261993 0.50262032
0.74545258 0.03870042 0.00766012
0.75142974 0.97372713 0.50300396
0.26074593 0.47930333 0.00450622
0.99986562 0.25268109 0.36159923
0.50466979 0.73976638 0.87542881
0.49438859 0.24288082 0.62402902
0.98548675 0.74524300 0.12361976
0.99858397 0.25158996 0.87491852
0.50165273 0.74434859 0.37583843
0.01205260 0.76404173 0.62358207
0.47977236 0.25076507 0.12216911
0.16517908 0.38234945 0.05010251
0.63809503 0.87426884 0.53410234
0.67253590 0.14778481 0.95941866
0.15779723 0.62031244 0.45646247
0.36508665 0.38470929 0.95969851
0.84389722 0.87441837 0.44819374
0.83799790 0.11741993 0.06164012
0.35513787 0.61564896 0.54757076
0.86023443 0.08653675 0.19504942
0.38661495 0.59503029 0.69739183
0.86558657 0.88792211 0.29758331
0.35032489 0.40717507 0.80854671
0.09835834 0.59921842 0.30529493
0.63930539 0.11109940 0.80557543
0.10287290 0.39395713 0.20357095
0.61365855 0.92004516 0.71153116
0.84592129 0.64159116 0.95398917
0.34969018 0.10028176 0.44087842
0.82666884 0.40346868 0.56123355
0.34884311 0.86638253 0.04348012
0.16071481 0.10185536 0.54262116
0.66275206 0.62911685 0.05949646
0.13816192 0.88200995 0.95587255
0.63984235 0.38139320 0.45269802
0.60455560 0.38179229 0.30895209
0.12783418 0.91756682 0.79931510
0.12832267 0.11082696 0.69980323
0.61196076 0.59347259 0.21848923
0.86787205 0.42348806 0.70079769
0.36268109 0.86356478 0.19978276
0.37315500 0.07678377 0.29737909
0.86991957 0.60094572 0.79758195
0.15546633 0.07610229 0.05310396
0.64323862 0.58862241 0.54464882
0.67370996 0.44089422 0.95472161
0.14025790 0.92357550 0.44319494
0.33196382 0.08288047 0.95667399
0.86159722 0.57517525 0.45258147
0.84827683 0.43965441 0.05990514
0.34305930 0.91864449 0.54307863
0.17311339 0.06586363 0.20471529
0.66337575 0.59932138 0.70910475
0.16489408 0.88124426 0.29132400
0.69376444 0.38875378 0.79667244
0.81420804 0.59691108 0.30923473
0.32214023 0.10165085 0.80036106
0.78522582 0.40079456 0.20430671
0.33585896 0.90496516 0.70592955
0.84939106 0.93882887 0.96302641
0.35132320 0.42722923 0.45550347
0.85657042 0.05754229 0.55102796
0.35217145 0.56621837 0.06195295
0.15799425 0.42719898 0.55153745
0.63068929 0.95268849 0.05124992
0.14791778 0.56451193 0.95255063
0.67439434 0.08927612 0.45852339
0.28794028 0.39550821 0.30344311
0.80899543 0.90400841 0.80602360
0.83183431 0.09235880 0.70236681
0.28064726 0.57609955 0.19486828
0.18044112 0.41797468 0.69837641
0.65680994 0.89423315 0.20175960
0.67561570 0.08786647 0.30393801
0.18091616 0.61887332 0.79376157
0.06549995 0.15866017 0.31391046
0.59165306 0.67719141 0.82086602
0.59014457 0.31284878 0.67096324
0.07354069 0.84450207 0.15619436
0.39259787 0.16610348 0.66732620
0.92238893 0.64838446 0.17660299
0.89809769 0.34835346 0.33024071
0.38845861 0.82000274 0.84937723
0.08176132 0.15433651 0.92159685
0.59135353 0.64218746 0.41824608
0.10287659 0.85135941 0.58063110
0.57218100 0.33145624 0.07465901
0.94259670 0.66370275 0.57982372
0.38072417 0.16275761 0.09076048
0.90613771 0.35199641 0.91114583
0.41801812 0.83890631 0.41867592
0.91458395 0.82817931 0.67308399
0.41817888 0.34600986 0.17502491
0.90994022 0.16251751 0.82726485
0.41843780 0.65160710 0.32967340
0.09496238 0.32125088 0.83025867
0.61256151 0.82757255 0.33726376
0.10979193 0.67514155 0.67044321
0.57400571 0.14488626 0.15787208
0.43000583 0.34886335 0.57345620
0.87813685 0.82615048 0.08837152
0.90695919 0.17174735 0.41102405
0.45391932 0.64193038 0.93028140
0.08858232 0.34313304 0.40841121
0.58945146 0.83867786 0.91895963
0.58194694 0.15997520 0.57533507
0.06695440 0.66087995 0.07281962
Direct configuration=      4
0.98795054 0.00488799 0.11536680
0.55549937 0.50443148 0.63225613
0.52235424 0.47964026 0.87894015
0.00431582 0.97913953 0.36944294
0.71906347 0.99008544 0.88076706
0.98636005 0.48308923 0.36736509
0.02581165 0.49340870 0.12247630
0.20438513 0.22149719 0.12722583
0.77125949 0.93016508 0.63276401
0.73284099 0.26415649 0.74207693
0.76217293 0.73311739 0.39502024
0.25382800 0.28926185 0.85957914
0.73717425 0.24431295 0.12413401
0.27636137 0.76844320 0.62179924
0.99870845 0.97352815 0.88665826
0.48605281 0.47487480 0.38399455
0.97534714 0.00246073 0.62994352
0.99760131 0.45856664 0.60929818
0.48101898 0.96127493 0.11379550
0.03325603 0.51222447 0.87267474
0.50369578 0.00427423 0.38813454
0.25020882 0.23931705 0.34591230
0.76666004 0.74424759 0.87250952
0.75614823 0.20114134 0.61295065
0.25524353 0.73871959 0.13874015
0.24700926 0.25355086 0.60793036
0.76108079 0.55733107 0.13215084
0.69873385 0.23802660 0.36396980
0.52820504 0.75013540 0.51118652
0.46692769 0.24816568 0.99601570
0.02790608 0.77673062 0.49171588
0.46382932 0.76736701 0.75559581
0.03410977 0.75090349 0.25905372
0.50610820 0.24196609 0.76872482
0.98282489 0.78527942 0.00257703
0.44974740 0.26356671 0.50098977
0.49111710 0.74754069 0.02136784
0.67534513 0.23998362 0.23773220
0.99009572 0.75950307 0.76131584
0.52270926 0.77100454 0.24895311
0.00739563 0.99286147 0.22897296
0.52021605 0.49345627 0.75146476
0.46940342 0.99562438 0.77689746
0.94826632 0.47673071 0.24065579
0.20337863 0.23119173 0.99476970
0.78954386 0.73678461 0.52273319
0.26059078 0.76366551 0.48976430
0.76819412 0.28333154 0.99714255
0.98335121 0.01741248 0.74174811
0.44920925 0.49466718 0.25511565
0.01080646 0.51891209 0.74265587
0.52012539 0.02018309 0.24227240
0.20476819 0.27895444 0.47173835
0.74880802 0.77424734 0.00540984
0.80363731 0.22167228 0.48018496
0.22104461 0.73997494 0.99982769
0.00101926 0.07930701 0.98310101
0.50133640 0.47184260 0.51119230
0.49306146 0.49062395 0.99225430
0.00940581 0.02313533 0.50276511
0.51642489 0.00876947 0.93523090
0.01244159 0.45505839 0.48659919
0.00793881 0.45362129 0.99165779
0.50265371 0.99999074 0.50353391
0.29842427 0.22871122 0.24356088
0.71265002 0.75599092 0.75755469
0.28943632 0.76371901 0.26508487
0.05269842 0.27574618 0.72824770
0.77565904 0.73581276 0.22472084
0.30558957 0.23887801 0.72360467
0.94600851 0.22581040 0.24469146
0.24316219 0.75054493 0.74442064
0.28752705 0.46961914 0.13314514
0.53043637 0.97653035 0.62472944
0.72939458 0.28880287 0.87417547
0.25424836 0.54573231 0.37012924
0.27264092 0.60658874 0.87552992
0.75441259 0.96208781 0.37631164
0.71923481 0.99048205 0.12776650
0.26921017 0.52646425 0.62369066
0.79396327 0.50601351 0.88412146
0.26939336 0.98270760 0.37384556
0.79016193 0.61933505 0.63032286
0.25338048 0.97596134 0.12661840
0.24793373 0.01070982 0.61667333
0.50882705 0.51123774 0.12569529
0.25640167 0.97766633 0.87365351
0.73828763 0.49795422 0.38054652
0.24929725 0.98424838 0.24443690
0.77565632 0.50706772 0.75230708
0.23565451 0.01344724 0.75199028
0.69403246 0.50282539 0.25100516
0.23840220 0.98773887 0.99865106
0.75579032 0.46720654 0.50300416
0.25196656 0.02238275 0.49467631
0.74359804 0.53369104 0.00429368
0.71435579 0.99732246 0.75724823
0.19736569 0.47173506 0.25174143
0.26567435 0.49026146 0.75239374
0.76545296 0.98710647 0.25904459
0.26396110 0.51551949 0.50229421
0.75833953 0.04869132 0.00129001
0.74582769 0.96994314 0.50231794
0.24529679 0.47093447 0.99672062
0.99708041 0.22865525 0.37334460
0.50481630 0.75525648 0.87619379
0.50339605 0.24324791 0.62182622
0.99829668 0.75312210 0.12855896
0.00314454 0.24590785 0.87079516
0.51051142 0.73835249 0.38319148
0.01326814 0.73933696 0.62696307
0.48701825 0.23642009 0.12788665
0.15032003 0.39618753 0.05210770
0.65176869 0.89553050 0.55998166
0.67892386 0.15102362 0.94863247
0.14700363 0.60195126 0.45710710
0.33593748 0.38145035 0.94261036
0.85615165 0.87971260 0.45768296
0.85086334 0.13658703 0.05387652
0.35720220 0.62346291 0.54560356
0.83343936 0.09216771 0.19703004
0.36741881 0.59630211 0.70343195
0.86693393 0.88499155 0.30337631
0.37960002 0.40498094 0.80288614
0.10069451 0.57795991 0.30248538
0.62749190 0.10172130 0.80937206
0.10992235 0.37478910 0.20294021
0.60840664 0.91223247 0.71368846
0.85305044 0.62377712 0.95692023
0.35830123 0.10905246 0.44515971
0.86403108 0.36967275 0.54643901
0.32691397 0.87912843 0.04853544
0.16537527 0.12112887 0.54340856
0.63313844 0.62979735 0.04537553
0.12895270 0.89486832 0.95348767
0.64578749 0.35855025 0.45770570
0.60024994 0.40226068 0.30773358
0.13796816 0.91555293 0.79835352
0.12761085 0.10537757 0.69644618
0.61605391 0.61743660 0.20710761
0.86198508 0.42356323 0.69954173
0.36744833 0.89598974 0.19699504
0.34400110 0.07355376 0.30051137
0.87392974 0.59946722 0.80597128
0.14625917 0.07837405 0.05365111
0.66376963 0.57137907 0.55269442
0.66094151 0.42623536 0.94807449
0.15503271 0.91547953 0.45138149
0.33516384 0.08841187 0.95047380
0.84213086 0.56371517 0.44676364
0.84268389 0.45379945 0.05784833
0.34277924 0.92673910 0.54417594
0.17184949 0.08861771 0.19669665
0.67069609 0.60349160 0.70570861
0.16218641 0.89912697 0.29824420
0.68419855 0.43178821 0.80672661
0.80685797 0.58267579 0.29955070
0.31882177 0.12222386 0.79687785
0.78878188 0.39725590 0.20482641
0.33297656 0.91965477 0.70672410
0.85087933 0.93793455 0.95642461
0.34157834 0.41281865 0.44898257
0.83122937 0.05854265 0.55850991
0.33891653 0.59120812 0.03666327
0.18211243 0.42242924 0.55725793
0.63045844 0.95329084 0.03447085
0.15081339 0.56761545 0.94702537
0.65472971 0.06698489 0.45523808
0.30642117 0.40561531 0.30079934
0.81910066 0.90691416 0.80653437
0.80699813 0.08164516 0.69963686
0.30123937 0.59232728 0.21459279
0.19396746 0.39747389 0.69046205
0.67117603 0.89404901 0.20679987
0.65848675 0.07771971 0.30627373
0.16622664 0.59335029 0.79125665
0.08819084 0.15297507 0.32625826
0.58815118 0.67476580 0.82561901
0.59847677 0.31793007 0.67302842
0.08864891 0.85222470 0.17211754
0.41432729 0.14148928 0.66085224
0.94276377 0.64903564 0.17851879
0.88364627 0.30851012 0.34031560
0.38521810 0.83923577 0.84361081
0.10587671 0.15598223 0.90774406
0.58277214 0.64856442 0.43077096
0.10269895 0.84873761 0.59589557
0.56493996 0.33673756 0.08380476
0.94195740 0.64828188 0.57209430
0.36976041 0.17743980 0.08518967
0.93489807 0.34723296 0.91774478
0.42230378 0.82739207 0.42804068
0.90937998 0.81955937 0.67452728
0.41895400 0.31226796 0.18369280
0.89480243 0.16872106 0.83301950
0.42164288 0.66843997 0.32900633
0.08201925 0.33149982 0.81790354
0.60969213 0.82950617 0.34861260
0.08951427 0.65362129 0.67315608
0.57957294 0.12737487 0.15421403
0.42004087 0.36087230 0.59518114
0.89354855 0.83770537 0.09493236
0.92460281 0.13054984 0.41619546
0.44195758 0.66179189 0.93009684
0.09093826 0.32920112 0.40344681
0.59190841 0.84101694 0.91875976
0.58304983 0.17552143 0.56773049
0.09102339 0.68235150 0.08243981
Direct configuration=      5
0.96636360 0.02809781 0.11506277
0.54678423 0.49444758 0.63532086
0.52014646 0.47531628 0.87929137
0.02570176 0.95604829 0.37198076
0.73569136 0.01111394 0.87130027
0.96275138 0.50194511 0.37240782
0.03389340 0.50271131 0.12325108
0.21054124 0.24208429 0.11453493
0.74748208 0.93039359 0.63323524
0.78630921 0.23340283 0.75789068
0.76674558 0.70337984 0.39168907
0.23831173 0.30544287 0.84776913
0.76847460 0.28911064 0.10381012
0.27951558 0.75691685 0.61771405
0.00698295 0.00365027 0.86292096
0.49032328 0.47928720 0.37876086
0.00035277 0.02139704 0.63207863
0.00137742 0.45860146 0.60919392
0.48561373 0.00094723 0.09319050
0.02699303 0.51320785 0.88131548
0.50758984 0.01114779 0.37146819
0.22641909 0.23185474 0.36817171
0.77954909 0.74195997 0.88527350
0.75712730 0.28508235 0.61524727
0.26136254 0.74864351 0.12775849
0.24858772 0.26426783 0.61573776
0.75449065 0.57702897 0.12756961
0.67871929 0.23943390 0.37491232
0.52098319 0.70697963 0.51942951
0.49702073 0.22853265 0.99836442
0.05260598 0.75670999 0.49708572
0.48622427 0.74538280 0.74485258
0.03529557 0.73620335 0.25796916
0.52005056 0.24615310 0.76518146
0.00563010 0.80040177 0.00538643
0.45869448 0.26522352 0.49931603
0.48651169 0.78004971 0.01010676
0.66653120 0.22965755 0.24342265
0.97517595 0.77969438 0.76365477
0.55670313 0.73434024 0.25235192
0.01028985 0.98611338 0.25014538
0.51933582 0.51889059 0.76282567
0.47564901 0.99801398 0.76560478
0.93993260 0.47079607 0.24547852
0.21531808 0.25427641 0.98694401
0.78125355 0.69772807 0.51783963
0.28144658 0.77504357 0.47587049
0.80541959 0.28381717 0.99781615
0.95024127 0.02507982 0.76026834
0.45707256 0.48428828 0.25049858
0.02698026 0.52008911 0.73899143
0.50809685 0.01862992 0.24365384
0.20262897 0.25486626 0.48866317
0.74614125 0.78508020 0.01751199
0.77297282 0.20280420 0.48826587
0.26110463 0.73453782 0.98479445
0.97702467 0.08862192 0.97869796
0.51446811 0.49563489 0.51755048
0.48464084 0.49768452 0.00381741
0.00007152 0.99878805 0.50652328
0.50634836 0.00952478 0.96062786
0.01312770 0.43744235 0.48748560
0.98980597 0.50008961 0.00613170
0.51313310 0.99531613 0.51459503
0.28690047 0.25853119 0.22948057
0.74779547 0.74773005 0.76312698
0.27919076 0.73310100 0.28083746
0.00349719 0.26844670 0.72745693