Na11Ge2PS12                             
           1
    13.342216    0.000000    0.000000
     0.000000   13.342216    0.000000
     0.000000    0.000000   26.684433
   Na   Ge   P    S 
  88  16   8  96
Direct configuration=     5
   0.58147643  0.78940810  0.26947729
   0.81091600  0.00187641  0.87261650
   0.15686603  0.43714530  0.87529560
   0.22586973  0.25266364  0.25458511
   0.76822336  0.49310032  0.88930836
   0.99280709  0.73973598  0.47577124
   0.96443366  0.89732932  0.02564235
   0.94451983  0.44076750  0.12200308
   0.00043276  0.01453351  0.78169436
   0.73985340  0.25045962  0.16590661
   0.00756823  0.55992073  0.22519855
   0.21796754  0.23462778  0.87854969
   0.50115315  0.88948078  0.11814163
   0.28358681  0.75360953  0.48644957
   0.48421809  0.04191519  0.73465413
   0.70919072  0.78178000  0.50557689
   0.73163799  0.25317542  0.49049132
   0.56646718  0.57026480  0.81605144
   0.50149028  0.01685185  0.01337313
   0.67531001  0.23812912  0.72890196
   0.78312311  0.27996911  0.29974686
   0.76789784  0.04345725  0.36281787
   0.00259549  0.56924365  0.72755521
   0.44662220  0.53523829  0.62290791
   0.47900423  0.05030746  0.22925409
   0.24937233  0.72247903  0.77841409
   0.41753301  0.47714796  0.87420508
   0.79649336  0.92586257  0.62725732
   0.93403795  0.46060235  0.48933135
   0.11072800  0.70742325  0.86366476
   0.19696997  0.96127015  0.63760046
   0.83935058  0.73288677  0.86104450
   0.99226774  0.97846824  0.37670529
   0.98050633  0.07244209  0.63898016
   0.26087012  0.72363731  0.12891540
   0.48898323  0.00858404  0.34746528
   0.52761682  0.25203421  0.02108255
   0.28466522  0.24269899  0.51675265
   0.19521815  0.27938427  0.63053677
   0.68082630  0.81378008  0.93095838
   0.99818882  0.26443891  0.22833364
   0.21565137  0.23253549  0.01906095
   0.91474917  0.24787113  0.74545281
   0.96395530  0.45802881  0.97574619
   0.25533354  0.93598998  0.39564781
   0.72922132  0.75212442  0.36708220
   0.46250634  0.56889181  0.48003319
   0.48202969  0.77106492  0.75731561
   0.54541471  0.01114314  0.87594791
   0.50608810  0.56230670  0.25734825
   0.76013195  0.56887336  0.62966513
   0.96978411  0.99346207  0.50893148
   0.99016845  0.25926779  0.50223460
   0.17636971  0.23706545  0.12586295
   0.97237355  0.49653640  0.34674195
   0.96376264  0.98097711  0.26489129
   0.18529661  0.24602914  0.75748427
   0.23798868  0.23643172  0.39475953
   0.51800795  0.70201867  0.00948569
   0.22511535  0.49606515  0.36423476
   0.00958073  0.07366933  0.95216829
   0.69170679  0.46852789  0.13694070
   0.75773402  0.69575214  0.07219783
   0.50098680  0.01592724  0.50855599
   0.71166370  0.00957306  0.11029951
   0.71273780  0.75127160  0.74691528
   0.18195644  0.49708749  0.61918958
   0.27002620  0.96149511  0.89119195
   0.48082421  0.25531604  0.25971633
   0.67581147  0.27546297  0.87622241
   0.26633890  0.03052835  0.13825618
   0.43677191  0.40939726  0.72382419
   0.31286804  0.46752750  0.12436462
   0.67720933  0.15212407  0.61495657
   0.47096509  0.47047767  0.00572057
   0.49448427  0.46181773  0.35190190
   0.98050097  0.67499382  0.01578233
   0.69548478  0.44983502  0.38304306
   0.96464428  0.98722780  0.12201148
   0.95566529  0.40393716  0.60509036
   0.81648691  0.78445086  0.21283417
   0.24785122  0.75360872  0.28271269
   0.11845172  0.71567836  0.38100862
   0.91387517  0.26917336  0.00514769
   0.22100192  0.73759234  0.60582675
   0.49615997  0.34667498  0.53000887
   0.22986156  0.73826659  0.98665856
   0.42666428  0.96280688  0.62840219
   0.22918357  0.00797383  0.26413924
   0.70613741  0.47983897  0.74754685
   0.25116511  0.98697240  0.76557973
   0.73977873  0.49632438  0.25855981
   0.23065191  0.98646509  0.02058142
   0.69501088  0.50175349  0.51290219
   0.20557745  0.99438072  0.50748501
   0.70230795  0.46102014  0.01691912
   0.75086282  0.99421841  0.74158319
   0.23629109  0.51256622  0.24228074
   0.21117330  0.49568670  0.74718893
   0.71385684  0.01020266  0.24655962
   0.21032226  0.48414578  0.50136869
   0.74670841  0.95354051  0.99431012
   0.73854188  0.01431501  0.49418134
   0.21646116  0.49483728  0.00535015
   0.99195854  0.21605893  0.37273580
   0.47698935  0.73579514  0.88470942
   0.45502869  0.26085230  0.64246974
   0.97287358  0.75241573  0.13656881
   0.95244165  0.24255319  0.88270309
   0.42739901  0.74284828  0.37892298
   0.97776942  0.74162437  0.63928466
   0.46829040  0.24828577  0.12773620
   0.11211342  0.41177764  0.05090321
   0.64799373  0.95360270  0.55325301
   0.65802209  0.04785509  0.94639067
   0.09766809  0.56350542  0.45102563
   0.31359255  0.41225342  0.94780955
   0.83068682  0.89898233  0.45389469
   0.83514701  0.05466598  0.04866895
   0.31243351  0.58016464  0.54434930
   0.83838041  0.08159314  0.20014274
   0.30527531  0.58923781  0.70112853
   0.76993559  0.87814587  0.30145092
   0.29667256  0.39260588  0.78787108
   0.13011952  0.60304161  0.29212295
   0.66874312  0.09700472  0.79846125
   0.14164077  0.42654301  0.19351448
   0.62510133  0.91653059  0.69934147
   0.81539727  0.57510330  0.97573937
   0.32321070  0.08067934  0.46459054
   0.78833407  0.39416702  0.55568696
   0.31844160  0.88740744  0.06554527
   0.13994757  0.09032410  0.56313267
   0.59120855  0.54455829  0.06691792
   0.13253497  0.91568872  0.96567889
   0.60079546  0.40280588  0.46283186
   0.62637055  0.38860579  0.29005148
   0.15095367  0.87701546  0.80662381
   0.13673299  0.05728638  0.72016451
   0.67726144  0.61761554  0.20714151
   0.83243539  0.42949629  0.69382240
   0.31152166  0.89987616  0.20753377
   0.33682256  0.12248878  0.30593550
   0.81305243  0.56604467  0.79782506
   0.11824036  0.09636671  0.06100440
   0.60265238  0.60182443  0.55944547
   0.62743157  0.38044178  0.95170844
   0.11115154  0.87929246  0.46323565
   0.34327649  0.08355454  0.96924546
   0.77061468  0.59835541  0.45625877
   0.78179501  0.36331190  0.07097098
   0.29221198  0.88158053  0.55746822
   0.10125733  0.12358292  0.21013333
   0.61172373  0.60463511  0.71361752
   0.14155503  0.91278700  0.31573927
   0.58914490  0.39005010  0.78704779
   0.82189749  0.57375411  0.31362859
   0.32490353  0.09339202  0.81875015
   0.82772806  0.38717022  0.22061759
   0.35289984  0.89878197  0.71395531
   0.87085002  0.87457067  0.94160985
   0.31151807  0.39620857  0.44946617
   0.84686507  0.11399864  0.54409938
   0.34708574  0.59181560  0.04953174
   0.12985135  0.37151488  0.54726008
   0.63160053  0.86818989  0.03691194
   0.12318816  0.60143845  0.95547968
   0.64714583  0.11057417  0.44627650
   0.32724332  0.40445817  0.29062349
   0.84661187  0.87672714  0.78623653
   0.81900111  0.10366127  0.68961650
   0.34334588  0.59676699  0.19548149
   0.10332668  0.39236548  0.69425522
   0.60836850  0.93891831  0.20009041
   0.64606305  0.13127071  0.29327318
   0.12640596  0.59342943  0.79984547
   0.09734987  0.31773761  0.33826229
   0.58816892  0.80828548  0.84142977
   0.38076827  0.19818050  0.70546163
   0.86490365  0.83809000  0.09989266
   0.59821260  0.32287355  0.64743795
   0.01654286  0.80983218  0.20308522
   0.87307015  0.31209246  0.39223775
   0.54950251  0.61246508  0.90632843
   0.90279148  0.35653329  0.83872327
   0.43596508  0.85212183  0.43813293
   0.08887998  0.75876589  0.68786429
   0.57723565  0.15798891  0.09759748
   0.84296823  0.74654708  0.66372254
   0.36869358  0.16607645  0.17741369
   0.03269362  0.13854004  0.84597740
   0.39506120  0.84673160  0.31421353
   0.99937353  0.60069288  0.61884692
   0.37327326  0.30109949  0.07135707
   0.82456464  0.17113866  0.92528648
   0.29179181  0.67478205  0.40385248
   0.05894012  0.28742691  0.93876503
   0.55237080  0.65395948  0.36879609
   0.01011058  0.82662826  0.57667691
   0.54073020  0.32907942  0.17882955
   0.45288731  0.15880599  0.58434151
   0.90523965  0.62008260  0.13973777
   0.92946435  0.13073422  0.31707277
   0.43456806  0.83717570  0.93260125
   0.04571716  0.15001445  0.43010385
   0.36516526  0.69605587  0.83647630
   0.36435951  0.35894445  0.60183998
   0.08099005  0.75421336  0.08271015
Direct configuration=    10
   0.58418131  0.79577278  0.27195325
   0.81065654  0.00548177  0.87225063
   0.15163145  0.43772884  0.87428656
   0.22798229  0.25194458  0.25811468
   0.76808681  0.49419407  0.89142178
   0.00013047  0.73779265  0.48136177
   0.95839241  0.89888584  0.02822462
   0.94270311  0.43538722  0.11975106
   0.00154073  0.01212439  0.78286068
   0.74289179  0.24742019  0.16704761
   0.00663401  0.56406202  0.22650118
   0.22370200  0.23796668  0.87949706
   0.50316086  0.88878036  0.11848713
   0.28237894  0.75207322  0.48795422
   0.47813974  0.03417353  0.73573202
   0.71465370  0.77827298  0.51115435
   0.73247233  0.25511087  0.48911111
   0.56964726  0.56230806  0.81802371
   0.49882055  0.01469220  0.01225389
   0.67054113  0.24140708  0.73098058
   0.78618257  0.28055495  0.30033587
   0.76918882  0.03889325  0.36456085
   0.99671218  0.57042523  0.72853954
   0.44687620  0.54261766  0.62241990
   0.47659753  0.04220800  0.23076024
   0.24247548  0.71810279  0.77668564
   0.41972385  0.47840880  0.87077697
   0.79663571  0.92612550  0.62601795
   0.93603898  0.45547050  0.48994336
   0.11678859  0.70887563  0.86748719
   0.20176354  0.96559120  0.63841972
   0.84267745  0.73735842  0.86061410
   0.98842174  0.97228243  0.37702105
   0.98602695  0.07082263  0.63813629
   0.27317787  0.72944736  0.12823752
   0.49410230  0.01257521  0.34940299
   0.52609992  0.25035492  0.02252216
   0.28582230  0.24347763  0.51448817
   0.19620197  0.27807533  0.63230655
   0.68371223  0.81172825  0.93179050
   0.99918753  0.26919311  0.22981476
   0.22095732  0.23327240  0.01876844
   0.90977496  0.24988307  0.74323107
   0.97072209  0.45266697  0.97315332
   0.24940793  0.94269702  0.39657160
   0.72410720  0.75323858  0.36467439
   0.46029455  0.56843037  0.47883699
   0.48346833  0.76678564  0.75522057
   0.54277908  0.01249144  0.87968484
   0.50938523  0.56270635  0.26334779
   0.76188404  0.56556784  0.62923177
   0.97311682  0.98979628  0.50572825
   0.98795426  0.25874466  0.49891905
   0.18203525  0.23852581  0.12506017
   0.97508204  0.49083946  0.34483940
   0.96137794  0.98073624  0.26576284
   0.17932927  0.24408849  0.75775013
   0.23445150  0.23474185  0.39535755
   0.51517622  0.70534678  0.00775802
   0.21732733  0.49269376  0.36375701
   0.01300396  0.07856549  0.95120847
   0.69401684  0.46513490  0.13932562
   0.76084460  0.69298998  0.07276507
   0.49962245  0.01274739  0.51213280
   0.71290233  0.00747284  0.11164575
   0.71124605  0.75301630  0.74793715
   0.19081131  0.49582371  0.61940651
   0.26483824  0.96350195  0.88903449
   0.47512326  0.25625662  0.25821736
   0.67881387  0.27844915  0.87831738
   0.26919708  0.02686833  0.13930842
   0.44374144  0.41132825  0.72243330
   0.30757487  0.46723966  0.12572475
   0.67857690  0.14225064  0.60911221
   0.47036070  0.47395393  0.00487754
   0.49478894  0.46340567  0.35347105
   0.97796463  0.68484977  0.02080022
   0.69790550  0.44841625  0.38653127
   0.96837021  0.98779377  0.12135566
   0.95404040  0.40374901  0.60673095
   0.81892896  0.77809639  0.21191787
   0.24661702  0.75535007  0.28150145
   0.12070267  0.71636721  0.38162369
   0.91339173  0.26908713  0.00327801
   0.21356188  0.73245950  0.60552794
   0.49094915  0.34517735  0.53115170
   0.24126381  0.73140388  0.99039245
   0.43500895  0.96380833  0.62725254
   0.22208108  0.01132468  0.26245100
   0.70728154  0.48332136  0.74672462
   0.25112746  0.98669819  0.76444036
   0.73606706  0.49587312  0.25923089
   0.23569043  0.99107668  0.02064376
   0.69777919  0.50642096  0.51229436
   0.20341548  0.99203100  0.50654218
   0.69973806  0.46185975  0.01580526
   0.75537618  0.99078555  0.74094083
   0.23775382  0.51266854  0.24362475
   0.20998586  0.49228907  0.74795595
   0.71422018  0.00809227  0.24524481
   0.21187635  0.48572314  0.50042989
   0.74424917  0.95452472  0.99290810
   0.73578127  0.01198267  0.49370201
   0.21873499  0.50075545  0.00673455
   0.99637254  0.22128261  0.37032976
   0.47604294  0.73650548  0.87996214
   0.45373745  0.25600128  0.64452995
   0.96939722  0.75594658  0.13540451
   0.94448698  0.24219128  0.88310926
   0.42319021  0.74822296  0.37957424
   0.98154514  0.74659754  0.64140470
   0.46664705  0.24548795  0.12554815
   0.10981051  0.41647747  0.05075570
   0.65040748  0.95545940  0.55125668
   0.65409469  0.05386720  0.94620013
   0.09538580  0.56239899  0.45005570
   0.31150025  0.40781921  0.94630429
   0.83795793  0.89653437  0.45665399
   0.83892193  0.05257971  0.04580693
   0.31451480  0.58539076  0.54427924
   0.83527905  0.07957670  0.19883475
   0.30590707  0.58638065  0.70090197
   0.76926123  0.88216284  0.30156376
   0.29972985  0.39134379  0.78835825
   0.12292579  0.60300224  0.29072358
   0.66728949  0.09263831  0.80067710
   0.14037474  0.42540036  0.19388903
   0.62350306  0.91220880  0.69908847
   0.81540410  0.57285119  0.97551180
   0.31835974  0.08227989  0.46032112
   0.78745094  0.39563393  0.55479820
   0.32632614  0.88550246  0.06582129
   0.14166888  0.09210056  0.56474083
   0.59999840  0.54730409  0.06782126
   0.13418029  0.91196715  0.96446146
   0.60261238  0.40841073  0.46380468
   0.62070884  0.39202086  0.28926583
   0.15643278  0.87400204  0.80712363
   0.13194247  0.06317181  0.72159017
   0.67378893  0.61767788  0.20553949
   0.82956245  0.42904258  0.69770705
   0.30923668  0.89712838  0.20715140
   0.33829380  0.11670638  0.30696755
   0.81137729  0.56434935  0.79695091
   0.12186423  0.08841351  0.06213323
   0.60742785  0.60560545  0.55905967
   0.62583945  0.38179729  0.95590380
   0.11002776  0.87650695  0.46375230
   0.33895907  0.08669040  0.96958600
   0.77330476  0.59762136  0.45598516
   0.77654712  0.36329688  0.07092652
   0.28965065  0.87824452  0.55739641
   0.10377530  0.12624214  0.20761714
   0.61316258  0.60776728  0.71278768
   0.13661835  0.90905189  0.31765655
   0.59329043  0.39153386  0.78815300
   0.82058978  0.57848114  0.31651774
   0.32428649  0.08749770  0.82044072
   0.82934321  0.39186799  0.21810609
   0.34399489  0.89271356  0.71509059
   0.86381561  0.87517782  0.93897479
   0.30718014  0.40121567  0.44836370
   0.85182819  0.10891809  0.54425496
   0.34780263  0.59182987  0.04859077
   0.13372398  0.37086130  0.54827302
   0.63474283  0.86663054  0.03849069
   0.11552306  0.59830463  0.95488867
   0.64740109  0.10671943  0.44449841
   0.32675722  0.40811090  0.29096919
   0.84598230  0.87800175  0.78415380
   0.81868303  0.10631226  0.68774481
   0.34229896  0.60332497  0.19398967
   0.10524619  0.38998866  0.69282733
   0.60853956  0.93822343  0.19898017
   0.64546227  0.13071869  0.29238051
   0.12714789  0.59473369  0.79804414
   0.10072964  0.31255037  0.33714242
   0.59058288  0.80798101  0.84070848
   0.37977392  0.20053302  0.70391071
   0.86304719  0.83983390  0.09835359
   0.59063096  0.32079861  0.64730933
   0.01146107  0.80120251  0.20461218
   0.86816820  0.31007411  0.39323893
   0.54704593  0.61640392  0.90928092
   0.90485210  0.35943927  0.83822040
   0.43694737  0.85036508  0.43505621
   0.09443222  0.75979921  0.69117478
   0.58504081  0.15464543  0.09785853
   0.84032994  0.75483748  0.66403808
   0.37383390  0.16696883  0.17558188
   0.03031379  0.14309178  0.84477423
   0.39572758  0.84541087  0.31821925
   0.99305128  0.59861873  0.61593888
   0.36876986  0.30475328  0.07401091
   0.82721862  0.17375093  0.92720212
   0.29200011  0.66914472  0.40381187
   0.05810727  0.28184426  0.93864188
   0.55142501  0.65596787  0.36686640
   0.02077032  0.82254849  0.57700135
   0.54483971  0.33080814  0.17677685
   0.45592988  0.16059536  0.58549835
   0.90901750  0.62267629  0.14038572
   0.93087727  0.13520441  0.31771735
   0.43570628  0.82794438  0.93247922
   0.04374195  0.14889309  0.43063121
   0.36114339  0.69343947  0.83620753
   0.36296059  0.36463749  0.60495795
   0.07850970  0.75514044  0.08340696
Direct configuration=    15
   0.58644922  0.80148392  0.27421884
   0.80938406  0.01015281  0.87076577
   0.14588270  0.44041193  0.87322517
   0.22968719  0.25154290  0.26117520
   0.76746486  0.49481227  0.89280039
   0.00429959  0.73290981  0.48849783
   0.95646403  0.90172064  0.02903084
   0.94175339  0.43003630  0.11740167
   0.00154509  0.00540880  0.78365523
   0.74400770  0.24341554  0.16780169
   0.00210796  0.56813724  0.22640633
   0.23070597  0.23959949  0.88065992
   0.50442555  0.88842981  0.11897417
   0.28102303  0.75075035  0.48967511
   0.47346074  0.02715301  0.73792600
   0.71965103  0.77268953  0.51699712
   0.73397929  0.25749314  0.48758383
   0.57381727  0.55850591  0.81918249
   0.49611416  0.01162301  0.01126963
   0.66565936  0.24452713  0.73324992
   0.78907673  0.27986618  0.30104925
   0.76930940  0.03529002  0.36702895
   0.98822196  0.57162635  0.72871465
   0.44845346  0.55074346  0.62214248
   0.47132117  0.03480933  0.23295032
   0.23542024  0.71788431  0.77095224
   0.42023197  0.47938416  0.86725709
   0.79586882  0.92677409  0.62426130
   0.93750153  0.45313324  0.49007208
   0.12389156  0.71289786  0.87268929
   0.20601845  0.96883998  0.63958139
   0.84543028  0.74135230  0.85951254
   0.98487795  0.96598022  0.37833205
   0.99248765  0.06838464  0.63676228
   0.28401644  0.73590327  0.12741151
   0.49976067  0.01694753  0.35224314
   0.52564863  0.24892093  0.02215865
   0.28638399  0.24387569  0.51299835
   0.19842896  0.27377697  0.63405465
   0.68319229  0.80702100  0.93216036
   0.99870635  0.27584593  0.23227964
   0.22661327  0.23491394  0.01699776
   0.90539180  0.25354932  0.74134559
   0.97891978  0.44872592  0.97031748
   0.24512922  0.94960624  0.39708791
   0.71996721  0.75241492  0.36357173
   0.45900311  0.56804106  0.47720274
   0.48473244  0.76242885  0.75271762
   0.53709588  0.01222876  0.88145096
   0.51155332  0.56316771  0.26823666
   0.76366119  0.56282152  0.62887995
   0.97774436  0.98600229  0.50314752
   0.98499435  0.25725465  0.49667523
   0.18818148  0.24079079  0.12508703
   0.97911157  0.48317277  0.34361367
   0.96014367  0.97900752  0.26528956
   0.17374866  0.24149559  0.75792767
   0.23201307  0.23179805  0.39623215
   0.51184187  0.70836861  0.00599671
   0.20965526  0.48895235  0.36397583
   0.01682427  0.08222326  0.95039402
   0.69531377  0.46246552  0.14286286
   0.76160684  0.68792786  0.07304523
   0.49438056  0.01067102  0.51429147
   0.71407961  0.00427324  0.11416640
   0.71137760  0.75467907  0.74912139
   0.19991473  0.49645931  0.62026618
   0.25909563  0.96426732  0.88714349
   0.46892996  0.25750186  0.25708149
   0.68258721  0.27988853  0.87932255
   0.27001532  0.02207166  0.13970025
   0.45102138  0.41410022  0.72079178
   0.30191237  0.46679030  0.12728120
   0.67994506  0.13224711  0.60294756
   0.46880135  0.47654893  0.00330345
   0.49239333  0.46427496  0.35626687
   0.97285524  0.69154268  0.02389171
   0.70350892  0.44852996  0.38938199
   0.97400567  0.99117436  0.12195187
   0.95270081  0.40428203  0.60939524
   0.81913670  0.77063660  0.21135089
   0.24513261  0.75673984  0.27906454
   0.12137145  0.71806619  0.38163659
   0.91083105  0.26704065  0.00274411
   0.20455463  0.72597350  0.60587119
   0.48541186  0.34293790  0.53290068
   0.25379392  0.72664111  0.99427046
   0.44395088  0.96464325  0.62589619
   0.21537717  0.01456435  0.26033603
   0.70878440  0.48778295  0.74566462
   0.25022714  0.98563208  0.76383408
   0.73179237  0.49731794  0.25973520
   0.24044787  0.99596603  0.01997818
   0.70043601  0.51130531  0.51152271
   0.20296991  0.98914719  0.50605718
   0.69830257  0.46399360  0.01492556
   0.75786340  0.98736032  0.74085136
   0.23952584  0.51329055  0.24488136
   0.20787251  0.48919823  0.74800984
   0.71585634  0.00717017  0.24457984
   0.21321538  0.48755301  0.49925090
   0.74318806  0.95712049  0.99186226
   0.73538255  0.01088732  0.49275970
   0.22195443  0.50737245  0.00739692
   0.99680399  0.23009842  0.36794912
   0.47692227  0.73719088  0.87381119
   0.45035750  0.25258404  0.64477440
   0.96756625  0.76049940  0.13388791
   0.93665599  0.24217443  0.88442981
   0.41776334  0.75524974  0.38030222
   0.98811069  0.74864668  0.64248591
   0.46657924  0.24032108  0.12560747
   0.10775521  0.41997489  0.05118027
   0.65141680  0.95331757  0.55210434
   0.65049423  0.06012072  0.94690217
   0.09291228  0.56116547  0.44924455
   0.30747240  0.40329966  0.94583554
   0.84373575  0.89426286  0.45844879
   0.84240747  0.05094764  0.04154060
   0.31490149  0.59071227  0.54434050
   0.83197637  0.07643587  0.19765886
   0.30735240  0.58367256  0.70017995
   0.76923493  0.88856587  0.30039805
   0.30396711  0.38726638  0.79105003
   0.11799578  0.60269896  0.29030476
   0.66711915  0.08728445  0.80226942
   0.13840019  0.42250033  0.19360747
   0.62376650  0.90894907  0.69888114
   0.81418623  0.57051251  0.97635229
   0.31211119  0.08261134  0.45626281
   0.78735664  0.39679339  0.55388184
   0.33514602  0.88376688  0.06607083
   0.14203929  0.09521185  0.56604724
   0.60921109  0.55143357  0.06785047
   0.13642610  0.90798833  0.96379885
   0.60286874  0.41337279  0.46444108
   0.61467913  0.39628725  0.28903521
   0.16160057  0.87292698  0.80836058
   0.12712563  0.07119592  0.72161823
   0.66989307  0.61689867  0.20497403
   0.82568022  0.42648405  0.70159761
   0.30544203  0.89672896  0.20820136
   0.33773513  0.10896496  0.30752182
   0.80978616  0.56436673  0.79734217
   0.12606844  0.07954797  0.06346508
   0.61166432  0.60988055  0.55889735
   0.62289872  0.38267772  0.95985935
   0.11095644  0.87621701  0.46339556
   0.33315966  0.09002908  0.97048661
   0.77814564  0.59784016  0.45540634
   0.77356765  0.36176362  0.07018538
   0.28859920  0.87806631  0.55719849
   0.10997329  0.12431625  0.20572823
   0.61329028  0.60896122  0.71161630
   0.13093914  0.90677193  0.31882106
   0.59833585  0.39040908  0.78974922
   0.81829970  0.58396102  0.31949176
   0.32462182  0.08214254  0.82147645
   0.83399592  0.39550829  0.21462058
   0.33542962  0.88667626  0.71563710
   0.85580922  0.87553569  0.93740860
   0.30418259  0.40552219  0.44705304
   0.85481477  0.10463002  0.54413644
   0.34476974  0.59145310  0.04711467
   0.13559703  0.37045692  0.54862394
   0.63835754  0.86365363  0.04006172
   0.10827271  0.59407797  0.95462002
   0.64695484  0.10213616  0.44202352
   0.32748367  0.41269952  0.29169953
   0.84570665  0.88142291  0.78194759
   0.81867323  0.10823912  0.68606934
   0.34094438  0.60954953  0.19402649
   0.10706647  0.38866921  0.69293884
   0.60790552  0.93352693  0.19626421
   0.64411001  0.12850269  0.29126093
   0.12518824  0.59109165  0.79660046
   0.10323771  0.30757945  0.33576535
   0.59309993  0.80801198  0.83955854
   0.37971698  0.20339775  0.70233885
   0.85903075  0.84140802  0.09847716
   0.58315081  0.31889242  0.64774695
   0.00702213  0.79328427  0.20582536
   0.86559414  0.30820080  0.39474064
   0.54541772  0.61846733  0.91358627
   0.90654385  0.36204002  0.83853109
   0.43950991  0.84858038  0.43254356
   0.09920159  0.76232154  0.69455290
   0.59032395  0.15145743  0.09786615
   0.83610546  0.76379081  0.66463681
   0.37910295  0.16927440  0.17311711
   0.02823551  0.14791827  0.84364103
   0.39848856  0.84165448  0.32232380
   0.98712097  0.59563918  0.61266640
   0.36586458  0.30904628  0.07686192
   0.83250129  0.17830190  0.92770143
   0.29674609  0.66246678  0.40240807
   0.05638325  0.27741553  0.93795209
   0.54801049  0.65865152  0.36472545
   0.03055214  0.82027608  0.57759996
   0.54868503  0.33429336  0.17366246
   0.45985715  0.15917092  0.58604722
   0.91076095  0.62178882  0.14132588
   0.93209523  0.13938126  0.31816405
   0.43494534  0.82160207  0.93409529
   0.04403082  0.14555726  0.43091978
   0.36050293  0.68880905  0.83726550
   0.36216420  0.37055202  0.60910539
   0.08028134  0.75807241  0.08508365
Direct configuration=    20
   0.58799878  0.80608198  0.27613024
   0.80710942  0.01578658  0.86839389
   0.13988071  0.44452852  0.87221024
   0.23119105  0.25140992  0.26346274
   0.76628068  0.49502299  0.89333803
   0.00583208  0.72523769  0.49666636
   0.95925236  0.90518164  0.02775463
   0.94145432  0.42543099  0.11495708
   0.00134231  0.99571705  0.78431234
   0.74306076  0.23918719  0.16811046
   0.99418949  0.57173764  0.22471415
   0.23850356  0.23997464  0.88195225
   0.50517026  0.88839454  0.11934016
   0.27966485  0.74940339  0.49073342
   0.47033293  0.02108676  0.74111306
   0.72455056  0.76556440  0.52284277
   0.73568454  0.25977129  0.48588324
   0.57905996  0.55949652  0.82017334
   0.49360495  0.00737985  0.01047664
   0.66094830  0.24655189  0.73545124
   0.79071650  0.27852836  0.30150132
   0.76857304  0.03297797  0.36989986
   0.97767902  0.57268695  0.72820463
   0.45143753  0.55929071  0.62203867
   0.46396682  0.02781867  0.23548496
   0.23039404  0.72080983  0.76260027
   0.41885023  0.47984235  0.86413640
   0.79436478  0.92878019  0.62201405
   0.93853631  0.45375499  0.48982698
   0.13232883  0.71833077  0.87847866
   0.20978349  0.97118051  0.64098146
   0.84771544  0.74466225  0.85777172
   0.98159769  0.96004315  0.38052483
   0.99902182  0.06529206  0.63511912
   0.29279142  0.74276009  0.12656576
   0.50566275  0.02139867  0.35587890
   0.52602572  0.24770367  0.02045858
   0.28594873  0.24379759  0.51231295
   0.20177690  0.26678023  0.63557482
   0.67857858  0.79925685  0.93232648
   0.99788417  0.28297375  0.23528562
   0.23173923  0.23777727  0.01416570
   0.90186743  0.25817873  0.74001378
   0.98720814  0.44643277  0.96751879
   0.24207365  0.95598913  0.39651931
   0.71711507  0.75002444  0.36363949
   0.45862031  0.56796074  0.47517057
   0.48555269  0.75803684  0.74983197
   0.52862962  0.01030125  0.88141498
   0.51214709  0.56463603  0.27179956
   0.76551560  0.56082815  0.62865454
   0.98313930  0.98353509  0.50166177
   0.98154617  0.25500215  0.49577883
   0.19448352  0.24375884  0.12573476
   0.98298650  0.47492267  0.34281551
   0.95993625  0.97603700  0.26366169
   0.16900196  0.23953387  0.75848505
   0.23064413  0.22762711  0.39747683
   0.50870619  0.71091158  0.00464990
   0.20239422  0.48534956  0.36476287
   0.02131067  0.08378605  0.94975083
   0.69580301  0.46062434  0.14668724
   0.76042737  0.68102020  0.07314394
   0.48577215  0.00931892  0.51498242
   0.71600132  0.00021755  0.11714643
   0.71294106  0.75569028  0.75036664
   0.20841238  0.49817232  0.62163017
   0.25282606  0.96334463  0.88604618
   0.46317114  0.25926315  0.25597708
   0.68662828  0.28010105  0.87945347
   0.26922021  0.01680526  0.13933664
   0.45804239  0.41765462  0.71918802
   0.29587768  0.46684058  0.12909360
   0.68129287  0.12314610  0.59705267
   0.46678378  0.47837263  0.00125151
   0.48772060  0.46469213  0.36039598
   0.96546041  0.69443488  0.02487000
   0.71189790  0.45054901  0.39116761
   0.98078422  0.99641982  0.12362398
   0.95173365  0.40493340  0.61288991
   0.81640952  0.76205834  0.21121477
   0.24355772  0.75789289  0.27563454
   0.12106483  0.72044805  0.38116711
   0.90651911  0.26394240  0.00398751
   0.19516751  0.71886914  0.60666536
   0.48046657  0.34069462  0.53493630
   0.26580670  0.72504421  0.99755468
   0.45321358  0.96481925  0.62465016
   0.20918507  0.01702874  0.25800492
   0.70956306  0.49293844  0.74480425
   0.24784190  0.98441565  0.76378413
   0.72798331  0.50057629  0.26003513
   0.24452785  0.99936820  0.01876437
   0.70297931  0.51612402  0.51069508
   0.20411575  0.98653107  0.50625631
   0.69890509  0.46740143  0.01473310
   0.75772770  0.98528572  0.74085370
   0.24070587  0.51472838  0.24557859
   0.20597363  0.48567142  0.74751390
   0.71746581  0.00707722  0.24425497
   0.21373057  0.48976712  0.49823325
   0.74276107  0.96095319  0.99110431
   0.73754558  0.01057597  0.49155320
   0.22471209  0.51324152  0.00720140
   0.99270413  0.23640850  0.36827869
   0.48016285  0.73782152  0.87043387
   0.44569701  0.25319601  0.64249325
   0.96693116  0.76305590  0.13305938
   0.93408159  0.24393187  0.88514445
   0.41329882  0.75601004  0.38076229
   0.99346444  0.74673935  0.64305964
   0.47186024  0.23671106  0.12667929
   0.10729917  0.42280997  0.05189391
   0.65072644  0.94774203  0.55503477
   0.64730796  0.06623644  0.94855794
   0.09051364  0.55978686  0.44870096
   0.30201748  0.39969611  0.94643029
   0.84666866  0.89205422  0.45924822
   0.84521186  0.05069294  0.03665377
   0.31343116  0.59523988  0.54437095
   0.82978447  0.07266052  0.19641647
   0.30913423  0.58085373  0.69931658
   0.77023396  0.89574155  0.29850708
   0.30762520  0.38215987  0.79475633
   0.11630625  0.60191440  0.29102840
   0.66825887  0.08110040  0.80297937
   0.13696583  0.41883262  0.19337329
   0.62559030  0.90694299  0.69871879
   0.81278353  0.56830647  0.97803080
   0.30521075  0.08189137  0.45314330
   0.78816782  0.39762531  0.55302459
   0.34394903  0.88354901  0.06560843
   0.14190498  0.09844165  0.56645618
   0.61685095  0.55729690  0.06736900
   0.13970542  0.90443427  0.96405908
   0.60077340  0.41704151  0.46502747
   0.60931421  0.40042635  0.28944608
   0.16563398  0.87355428  0.81028453
   0.12352648  0.07923583  0.72064601
   0.66578311  0.61532197  0.20568981
   0.82272877  0.42128159  0.70426461
   0.30013362  0.89875584  0.21066316
   0.33485679  0.10019405  0.30747482
   0.80872037  0.56708175  0.79926186
   0.13058272  0.07140475  0.06518692
   0.61514209  0.61474174  0.55906496
   0.61766446  0.38143039  0.96216376
   0.11356420  0.87720199  0.46209838
   0.32770452  0.09432130  0.97132866
   0.78530912  0.59928420  0.45452073
   0.77277689  0.35884034  0.06878954
   0.28924727  0.88093162  0.55711511
   0.11875480  0.11892822  0.20486278
   0.61210309  0.60844390  0.71010303
   0.12524505  0.90650823  0.31885883
   0.60420014  0.38732797  0.79155165
   0.81490213  0.58834227  0.32185993