Na11Sn2PS12                             
           1
    13.342216    0.000000    0.000000
     0.000000   13.342216    0.000000
     0.000000    0.000000   26.684433
   Na   Ge   P    S 
  88  16   8  96
Direct configuration=    50
   0.99537137  0.01618280  0.11613550
   0.53043054  0.49435490  0.62758753
   0.19666526  0.44819021  0.87829989
   0.00020490  0.98396043  0.36437635
   0.73645471  0.98089052  0.86916579
   0.00453281  0.46025094  0.46082563
   0.98852651  0.46453432  0.13936160
   0.22560464  0.20554441  0.13112387
   0.71819369  0.98097075  0.62188506
   0.72520849  0.21486701  0.70889603
   0.75675039  0.75962552  0.37124223
   0.27851177  0.21581240  0.87630667
   0.74466581  0.25526679  0.12920098
   0.29109401  0.73946404  0.63055769
   0.98921994  0.97210503  0.86895783
   0.46337110  0.51307065  0.35730957
   0.94729984  0.00361857  0.62673358
   0.99334528  0.48050240  0.61402206
   0.50134151  0.97688703  0.13104524
   0.95937844  0.49217542  0.87122442
   0.47726421  0.03011413  0.38079723
   0.20922288  0.12919124  0.37387204
   0.72076623  0.54469916  0.87980849
   0.74043562  0.39007516  0.61443380
   0.28177080  0.73091989  0.12808331
   0.21047030  0.24189409  0.62969220
   0.74738643  0.74867656  0.11210501
   0.71687699  0.27845097  0.38062184
   0.46714847  0.75219105  0.50035970
   0.45684225  0.22429817  0.98706971
   0.99256582  0.95872697  0.49563501
   0.46608282  0.76889005  0.73449289
   0.04015869  0.76388449  0.25105853
   0.49436915  0.22772723  0.76511884
   0.99205217  0.07127491  0.98435655
   0.52000313  0.26442854  0.48870732
   0.52761559  0.74289892  0.99453267
   0.85886568  0.23802145  0.26470616
   0.00542929  0.68691898  0.74083241
   0.51282401  0.73892998  0.24899388
   0.01034924  0.01965786  0.23494316
   0.52995680  0.48410813  0.75752343
   0.48202975  0.99571780  0.87245092
   0.97467241  0.47574535  0.26858090
   0.18307320  0.21808040  0.98134626
   0.75173126  0.72526734  0.50894204
   0.22002086  0.76879659  0.52199942
   0.74791063  0.25467400  0.01441009
   0.99481867  0.98274127  0.75391820
   0.47344055  0.49386431  0.23865878
   0.01704555  0.46317720  0.75293726
   0.49683860  0.00495188  0.25482334
   0.27521274  0.28026858  0.50014714
   0.74425029  0.75144810  0.98824930
   0.76577394  0.23527759  0.49456163
   0.23723598  0.71261818  0.00924729
   0.97891731  0.49211083  0.01764637
   0.51594113  0.51710358  0.50836179
   0.49870067  0.46236064  0.01964403
   0.02501847  0.23010023  0.50206189
   0.51102915  0.99562198  0.98437919
   0.97486811  0.71923398  0.47789033
   0.97914878  0.73110865  0.99480398
   0.50959756  0.99824779  0.52693382
   0.49449686  0.24702551  0.26441446
   0.72167873  0.73833262  0.76663234
   0.28626928  0.75194904  0.25817912
   0.97945949  0.21584287  0.74232272
   0.77957347  0.75172196  0.24376051
   0.24646465  0.22412247  0.75400528
   0.21124433  0.25930310  0.24384017
   0.24181645  0.74442453  0.74305473
   0.26160747  0.45898712  0.12410377
   0.49284418  0.99870792  0.73232953
   0.73618718  0.25348170  0.87866510
   0.18960362  0.48065258  0.36596961
   0.21782913  0.72490602  0.88330417
   0.75020766  0.01510717  0.37239659
   0.74543516  0.98908396  0.13085378
   0.26673977  0.49285173  0.61834984
   0.50438422  0.45242544  0.88207480
   0.22226837  0.76425484  0.39241777
   0.74749731  0.73518225  0.63992355
   0.27830167  0.97617143  0.12993894
   0.27436772  0.03856614  0.61471876
   0.62969295  0.48123803  0.12985786
   0.22989910  0.96751127  0.87625266
   0.70542586  0.52348986  0.37755340
   0.26026296  0.99592291  0.24811549
   0.77802588  0.46601898  0.75167568
   0.23567844  0.98802740  0.74820328
   0.72757145  0.50029394  0.24947909
   0.24938829  0.96682006  0.00264744
   0.75320587  0.48442760  0.50180410
   0.25813806  0.01902292  0.49044835
   0.75946573  0.48874534  0.00866064
   0.74261854  0.97697790  0.74874291
   0.22601777  0.49490101  0.23992881
   0.28573906  0.49798346  0.74942128
   0.75961009  0.00731151  0.24176236
   0.24091737  0.51650492  0.49559355
   0.74895103  0.99326288  0.99810490
   0.73981163  0.96789927  0.49993730
   0.24463598  0.47904079  0.99891158
   0.00052045  0.24837411  0.37924731
   0.47853687  0.74455591  0.86818747
   0.51360084  0.24332529  0.62827499
   0.00614888  0.76710779  0.12849012
   0.99645492  0.23317085  0.86631135
   0.49270888  0.76454801  0.37686766
   0.01663075  0.75752875  0.62068390
   0.48073302  0.23506088  0.13217963
   0.15046902  0.38874961  0.05012688
   0.64776537  0.86434016  0.54922376
   0.66476046  0.10504504  0.94790025
   0.12394363  0.60649539  0.46024037
   0.31827060  0.37482978  0.94295715
   0.84080375  0.88195696  0.44686294
   0.83533192  0.08754587  0.05338363
   0.34026219  0.60265194  0.54475699
   0.85606931  0.11176613  0.18581878
   0.39276496  0.58849979  0.69601574
   0.87032665  0.91335156  0.28330027
   0.36540898  0.39774913  0.81023629
   0.13652021  0.59191434  0.29171055
   0.63979053  0.07600158  0.79671870
   0.12279149  0.39098450  0.20209290
   0.64442746  0.86449740  0.70580833
   0.84931023  0.58697817  0.95864804
   0.36075233  0.11364320  0.44745089
   0.87088431  0.38730762  0.52895767
   0.36518640  0.88418130  0.04863656
   0.15914687  0.11921381  0.54873303
   0.64961259  0.59850278  0.04811868
   0.14546362  0.87427633  0.95955494
   0.63461774  0.39253520  0.45288065
   0.61715911  0.40848055  0.30282996
   0.14076964  0.88746455  0.79077221
   0.14122152  0.09244532  0.69443041
   0.62234020  0.60482811  0.20321521
   0.87647551  0.36706335  0.69866252
   0.36609832  0.88716739  0.20463853
   0.33639494  0.10021610  0.29700027
   0.87160988  0.58000743  0.79523777
   0.15860725  0.07254443  0.05054546
   0.67395645  0.57678275  0.56252046
   0.66315185  0.40173577  0.95549666
   0.15028566  0.93273774  0.43379892
   0.34070045  0.05752323  0.94366087
   0.82699193  0.57842729  0.44386115
   0.83511716  0.39941997  0.06800970
   0.34238685  0.91315653  0.54277979
   0.16198976  0.08607702  0.19583266
   0.68151094  0.56158941  0.71043568
   0.16193863  0.90458145  0.30051781
   0.69340325  0.38240717  0.80992521
   0.82779099  0.59709296  0.29388925
   0.34032116  0.08275250  0.79949403
   0.80785013  0.39323925  0.20540393
   0.33216173  0.89789373  0.69390075
   0.85822117  0.91456895  0.94232650
   0.33417266  0.43781899  0.44208737
   0.82447798  0.06381787  0.54953311
   0.35275318  0.57890992  0.04869950
   0.14842006  0.40346917  0.54702522
   0.64331930  0.87994290  0.04386637
   0.14680149  0.57120695  0.94973912
   0.63673856  0.06153950  0.44987518
   0.32183791  0.40538367  0.29074544
   0.84156819  0.89634500  0.80170741
   0.84263657  0.07282191  0.70038593
   0.33288352  0.58195341  0.19438374
   0.18871365  0.38896856  0.70048377
   0.64432356  0.90149177  0.19993035
   0.67670333  0.10637442  0.29941549
   0.17197324  0.57578630  0.79002064
   0.04923459  0.16873467  0.31408354
   0.56296433  0.65514888  0.82144775
   0.58705117  0.34233202  0.67654787
   0.10773033  0.86584984  0.16342733
   0.42376713  0.14385721  0.66929877
   0.90790412  0.68903406  0.16983347
   0.92185278  0.37052957  0.35494728
   0.37526752  0.82567958  0.83371563
   0.09317763  0.12981780  0.90058165
   0.57101767  0.66262532  0.42121274
   0.10302548  0.85861941  0.58825930
   0.57678686  0.31537840  0.08360264
   0.91057847  0.68482688  0.58227466
   0.39681941  0.14065701  0.08902498
   0.91096371  0.30405231  0.91867666
   0.41440507  0.86052809  0.42114746
   0.93508127  0.81978125  0.67882856
   0.39249808  0.31643463  0.17698304
   0.89864353  0.14677498  0.82540988
   0.39296940  0.68451495  0.33049380
   0.08331029  0.32288016  0.82433351
   0.58844640  0.85334348  0.33075124
   0.10357986  0.63240245  0.65338885
   0.57436213  0.13857968  0.17266577
   0.41847285  0.31489189  0.58501990
   0.91258907  0.84258352  0.07501707
   0.90781420  0.14403926  0.41441339
   0.43166539  0.65736853  0.92659179
   0.11558045  0.30720795  0.41723660
   0.57999011  0.84482592  0.89924401
   0.62669361  0.17179495  0.59301945
   0.09380827  0.67020141  0.08876974
Direct configuration=   100
   0.99005175  0.02824115  0.11682229
   0.53340379  0.52462965  0.63191599
   0.26056462  0.45530735  0.86928159
   0.00332949  0.99937787  0.37828390
   0.72669751  0.95598322  0.87915978
   0.98751261  0.46809125  0.45133628
   0.99383309  0.50195623  0.12979908
   0.21476849  0.25872194  0.11495710
   0.72141387  0.99037608  0.62697764
   0.72505235  0.22452539  0.71877381
   0.76536426  0.73924451  0.35959750
   0.26738857  0.23171715  0.86407482
   0.74616751  0.24295082  0.13966844
   0.27516415  0.76256003  0.62084895
   0.97040354  0.98625700  0.87512382
   0.45561470  0.49502667  0.36523768
   0.99235419  0.00589082  0.62604228
   0.98967870  0.51015390  0.59254069
   0.50457728  0.93740777  0.12175102
   0.99387323  0.51114808  0.88330042
   0.50666632  0.02472786  0.37514163
   0.21680257  0.10031817  0.36873766
   0.72982463  0.52692084  0.87440826
   0.75061149  0.40330671  0.62048511
   0.24029420  0.73659194  0.12639342
   0.25366747  0.26357939  0.61050426
   0.75377013  0.71351858  0.11846384
   0.70859689  0.26849955  0.36238064
   0.47090072  0.77463238  0.50452250
   0.44389544  0.22521075  0.00349806
   0.00984770  0.02622951  0.51114706
   0.49891733  0.74923997  0.74947022
   0.01265324  0.74768278  0.24710408
   0.52841159  0.24146725  0.77052227
   0.99729463  0.03383739  0.99305959
   0.49357205  0.24036828  0.47526456
   0.49891337  0.71412622  0.01354201
   0.83431188  0.22982171  0.26943607
   0.98666662  0.71421847  0.76538599
   0.52260149  0.75922180  0.24340951
   0.02073475  0.01166716  0.24767240
   0.53744768  0.49461954  0.74871027
   0.47378992  0.99588311  0.85411770
   0.98309772  0.45375193  0.27309754
   0.20376016  0.24027439  0.99182606
   0.74259429  0.72205813  0.51014589
   0.20744921  0.77674665  0.50231698
   0.68904505  0.24149390  0.00558814
   0.98258283  0.98244903  0.75015763
   0.47685905  0.49013754  0.23321839
   0.02839886  0.46940899  0.74447374
   0.52173674  0.00377171  0.24644053
   0.24312283  0.27629625  0.48692560
   0.75295129  0.75062421  0.98557628
   0.73216406  0.22154372  0.52190886
   0.24963012  0.73335303  0.99768932
   0.99645779  0.45815773  0.99799395
   0.50871300  0.53159913  0.49606197
   0.49081603  0.47252057  0.00915808
   0.01722309  0.26312466  0.50410640
   0.48724934  0.94457778  0.99003006
   0.99208126  0.73339333  0.48650906
   0.00022591  0.75432055  0.99528484
   0.51254569  0.04097227  0.52734545
   0.54023986  0.24501574  0.25240673
   0.74153068  0.71179544  0.78618223
   0.25623485  0.75570110  0.25133556
   0.00440430  0.23681497  0.73396760
   0.79236330  0.74338666  0.23970452
   0.26721387  0.23370961  0.74400836
   0.24835707  0.24641046  0.26321712
   0.23013236  0.72821556  0.73961903
   0.29974480  0.47236171  0.12771329
   0.48990323  0.00915176  0.71936788
   0.75703721  0.23502776  0.87438185
   0.20944702  0.46745508  0.37596388
   0.22530441  0.68360499  0.86776119
   0.74490211  0.98113429  0.37833524
   0.76247706  0.98456149  0.11606290
   0.27367128  0.48826624  0.61220267
   0.47482139  0.46693930  0.88209490
   0.24695219  0.75557648  0.36550086
   0.75412030  0.72572153  0.63402589
   0.24517327  0.98482547  0.13006946
   0.28968071  0.99939268  0.62943037
   0.64729011  0.46029028  0.12924803
   0.23490469  0.95815329  0.87596215
   0.71845245  0.52327924  0.37803312
   0.26335045  0.00233857  0.25543176
   0.77152472  0.48187295  0.74712614
   0.21884260  0.97077043  0.75384269
   0.73878375  0.50328782  0.25235557
   0.23999030  0.97635848  0.00711838
   0.76790059  0.48661247  0.49671814
   0.25460818  0.02446930  0.49559748
   0.75004707  0.48870597  0.99904552
   0.75279747  0.97220249  0.75259218
   0.23245058  0.50683422  0.25123387
   0.27418935  0.47282985  0.74475371
   0.76324421  0.00245537  0.24925865
   0.25341107  0.52961491  0.49767633
   0.75441812  0.00948681  0.00026373
   0.74022962  0.95596099  0.49943216
   0.23440628  0.47921308  0.99836062
   0.98028163  0.24571467  0.37130286
   0.48309364  0.71769283  0.87160039
   0.48996835  0.25983960  0.63089678
   0.99337028  0.75331767  0.11719196
   0.01370031  0.24225391  0.86808715
   0.49692087  0.76855934  0.37046165
   0.01684250  0.75989166  0.63284683
   0.48161465  0.21939838  0.12291432
   0.14094362  0.39423309  0.05484052
   0.63165914  0.86301802  0.54492310
   0.63728628  0.08402393  0.95019471
   0.16857908  0.61635540  0.44341054
   0.33638400  0.37541284  0.95563038
   0.83636142  0.86365015  0.44812089
   0.84459722  0.11446066  0.04722587
   0.34118110  0.62598839  0.54668271
   0.85692882  0.09474571  0.19113246
   0.37288555  0.58996176  0.70470667
   0.85410227  0.91379562  0.30168993
   0.37608140  0.36683072  0.79500343
   0.13319300  0.60130366  0.30082211
   0.64000166  0.06963015  0.79353846
   0.14754138  0.41484637  0.19770274
   0.64453957  0.87267529  0.70894424
   0.84466444  0.58892177  0.95546857
   0.34257012  0.11680590  0.44335410
   0.86628189  0.38339518  0.53743207
   0.33657375  0.86012964  0.04728009
   0.15388484  0.13361542  0.54779277
   0.65172970  0.59714114  0.04903650
   0.13736949  0.88838811  0.95769340
   0.65153254  0.38692173  0.45481974
   0.62024061  0.41719445  0.30155690
   0.12098948  0.87754242  0.80503176
   0.13164417  0.08737113  0.70938745
   0.64518961  0.60443394  0.19820367
   0.87066005  0.38571825  0.69930051
   0.35476941  0.89821737  0.20644517
   0.37744937  0.08749369  0.29787908
   0.88175831  0.55558355  0.80301847
   0.13787809  0.07608934  0.05612199
   0.67086655  0.55737449  0.56191370
   0.65015922  0.40098905  0.94560182
   0.14465243  0.92364692  0.44703337
   0.33005778  0.06385869  0.95410804
   0.84130280  0.59429058  0.44773367
   0.84318063  0.38691003  0.04271719
   0.34901903  0.92780467  0.54611100
   0.17009831  0.10189464  0.20431220
   0.69356922  0.58811588  0.70241568
   0.14952166  0.90862827  0.30203626
   0.67146592  0.38472635  0.79220889
   0.83284850  0.58952895  0.30395757
   0.32940250  0.06894145  0.79761865
   0.81079367  0.39336643  0.20621184
   0.31968106  0.87269587  0.70560058
   0.86451825  0.91024180  0.95322977
   0.34037310  0.42411783  0.45179427
   0.83206220  0.03228092  0.55221165
   0.33232186  0.58351409  0.04107088
   0.15631121  0.41225606  0.54424192
   0.64194771  0.90486567  0.04683507
   0.13659463  0.57237205  0.95277084
   0.65420130  0.07404277  0.45417983
   0.33170271  0.40757848  0.29742741
   0.85041185  0.87856864  0.80995629
   0.83843131  0.06682423  0.69948974
   0.32562031  0.59887512  0.20107947
   0.17254497  0.38374890  0.68953986
   0.67344668  0.89867478  0.19501003
   0.66585879  0.11762202  0.29365709
   0.18299123  0.56648806  0.79271587
   0.03379171  0.18483799  0.30893052
   0.57039063  0.62870618  0.82794417
   0.56129675  0.34606873  0.68353862
   0.07429873  0.84910435  0.16070960
   0.39099139  0.17723930  0.66819038
   0.91878176  0.66058207  0.16916657
   0.88129422  0.36746935  0.35083596
   0.37478756  0.79348272  0.83067637
   0.10223718  0.14972547  0.90934537
   0.57563966  0.67376411  0.41989857
   0.11500302  0.86166219  0.59439622
   0.56659697  0.31198302  0.07214137
   0.92291972  0.68455927  0.58357004
   0.37569851  0.13142406  0.08693440
   0.92930669  0.32437221  0.91764081
   0.39830539  0.85082729  0.41048491
   0.91228157  0.82090908  0.68390205
   0.41256085  0.32252073  0.16877981
   0.91815895  0.16193220  0.82442346
   0.42363334  0.68603063  0.31965918
   0.10592823  0.32335355  0.81700062
   0.59856829  0.85690636  0.33340104
   0.09839232  0.65617452  0.66830571
   0.57896109  0.13931145  0.16089718
   0.43666625  0.35089057  0.57513405
   0.89687287  0.83255904  0.07400229
   0.90660176  0.16775174  0.42846678
   0.39807270  0.62785182  0.92079926
   0.11221980  0.30705182  0.40234131
   0.56718795  0.80482499  0.91434339
   0.58416299  0.16869963  0.59446763
   0.07714704  0.65609395  0.07472352
Direct configuration=   150
   0.00091861  0.98673712  0.12441363
   0.50221135  0.53534701  0.62314494
   0.25181077  0.46502871  0.87721765
   0.97280505  0.97808542  0.36762434
   0.69500637  0.92140807  0.88280132
   0.00753665  0.50881698  0.42183574
   0.99624830  0.45715116  0.12604966
   0.23815570  0.23236340  0.14987448
   0.67910786  0.00335591  0.63214978
   0.77270179  0.24174073  0.74980858
   0.76069222  0.74782678  0.38255112
   0.27211411  0.20741280  0.86890891
   0.78709328  0.21619452  0.12855390
   0.25417895  0.75561338  0.63326209
   0.99703770  0.96837280  0.87413652
   0.49257691  0.50893882  0.37202454
   0.98318608  0.01864326  0.63160030
   0.00479669  0.50774267  0.60704358
   0.48505793  0.98903167  0.10836388
   0.00629040  0.48988229  0.86762835
   0.47619576  0.99959143  0.38486045
   0.22737146  0.06146879  0.37232128
   0.76799408  0.48523184  0.87273597
   0.73060754  0.44654574  0.62608996
   0.24237693  0.71858062  0.11677500
   0.24342889  0.28753662  0.59122691
   0.71375754  0.69396913  0.11894518
   0.72181029  0.23361197  0.38960675
   0.49325045  0.80104589  0.48933381
   0.46708888  0.19102267  0.99054765
   0.97425351  0.00562383  0.49285067
   0.49080763  0.73615360  0.74534544
   0.00425455  0.72681800  0.26556009
   0.50911282  0.25812451  0.75250943
   0.98232564  0.03308757  0.99490336
   0.48959196  0.29353986  0.49951380
   0.46547463  0.71338530  0.01453651
   0.86323536  0.24611421  0.26862165
   0.95565068  0.75691764  0.76929397
   0.51483939  0.75719951  0.23506800
   0.02431641  0.98379973  0.25358327
   0.52077723  0.49690241  0.76720445
   0.51244515  0.97317952  0.85122520
   0.98929243  0.47251730  0.25820577
   0.18379866  0.22937809  0.99257866
   0.72941513  0.73974950  0.49447387
   0.26379615  0.78308131  0.48940209
   0.74125979  0.25588080  0.98984291
   0.96860495  0.97990812  0.75253785
   0.47954486  0.50378749  0.23800413
   0.02715928  0.50315869  0.73100720
   0.52102084  0.00943048  0.25018474
   0.25095879  0.25636393  0.46865373
   0.72174360  0.73849665  0.98816462
   0.75467773  0.20389225  0.52088208
   0.22802392  0.71091267  0.98598497
   0.99165360  0.45076601  0.99996757
   0.51588584  0.51992426  0.49149926
   0.49188317  0.45720244  0.00566394
   0.99533167  0.25501627  0.50182359
   0.49367698  0.95929154  0.99006307
   0.99554070  0.75509394  0.48387719
   0.95844921  0.75561364  0.98432981
   0.48778147  0.02669828  0.52264936
   0.54854188  0.24757429  0.23801235
   0.72237221  0.72176849  0.77623969
   0.26248737  0.76764273  0.26158121
   0.00196980  0.23540940  0.74064874
   0.75399411  0.74352229  0.23979967
   0.24709561  0.22645583  0.73754875
   0.23784138  0.27860631  0.25906287
   0.23773544  0.71650637  0.75211913
   0.28336196  0.47174794  0.13448947
   0.48436083  0.02268960  0.72131054
   0.75004417  0.23905373  0.87018539
   0.23155623  0.48511469  0.37281237
   0.22398344  0.73173554  0.86973459
   0.75040323  0.99149548  0.37304121
   0.75295948  0.98349109  0.12341859
   0.26290540  0.52715929  0.62138815
   0.51291848  0.43588412  0.87133877
   0.21071866  0.75506817  0.37305611
   0.76735344  0.72450866  0.63707775
   0.23524816  0.99208253  0.13122275
   0.23243431  0.00891409  0.62230127
   0.70225083  0.46782966  0.12210507
   0.25249560  0.98057707  0.88408490
   0.74292185  0.49338225  0.37532617
   0.29115943  0.00375072  0.25045158
   0.78307596  0.47905181  0.74520483
   0.24206752  0.96861719  0.75542464
   0.72917525  0.49919578  0.25153669
   0.23814054  0.97393157  0.00451060
   0.76508207  0.46189302  0.50385349
   0.24966476  0.02558898  0.50109318
   0.73937168  0.50640666  0.98968778
   0.72040935  0.98240766  0.75350267
   0.23980103  0.53016231  0.24689468
   0.27129569  0.47377022  0.74539227
   0.77378496  0.98675887  0.25152582
   0.26495157  0.54227425  0.49201333
   0.72414674  0.00933295  0.99709107
   0.74680162  0.98577970  0.50394737
   0.25145310  0.47588824  0.00084575
   0.97317438  0.24338067  0.37686933
   0.48695422  0.70997575  0.88689393
   0.50231355  0.25712094  0.62334001
   0.98603994  0.74619456  0.12528067
   0.00853169  0.23042849  0.86839317
   0.50665121  0.75210776  0.36812745
   0.00268878  0.75800803  0.62260971
   0.48884110  0.23244678  0.12147225
   0.15270632  0.37970564  0.05001603
   0.64877797  0.88049438  0.54904986
   0.62168683  0.09627103  0.94351493
   0.16398684  0.63730149  0.44784500
   0.33657924  0.35857188  0.95800425
   0.84224137  0.89210591  0.44708508
   0.81418445  0.10894793  0.04492863
   0.36580292  0.62803541  0.53956230
   0.87106631  0.08089642  0.19603633
   0.36859624  0.59148351  0.69918327
   0.86891364  0.87939632  0.29587491
   0.37050348  0.37552182  0.79799566
   0.13186911  0.60224620  0.30020624
   0.62855909  0.08461114  0.79886196
   0.14082560  0.41904572  0.20451555
   0.63310560  0.86897367  0.70407571
   0.84648112  0.58904217  0.94655917
   0.37175601  0.11952866  0.46250176
   0.85827045  0.36747188  0.55177863
   0.32858915  0.88828119  0.05644260
   0.14454976  0.12365942  0.55198058
   0.62961289  0.60123218  0.03683252
   0.14212148  0.88061092  0.94893376
   0.65459617  0.37824436  0.45233373
   0.62174203  0.40347943  0.29934496
   0.14553867  0.86410342  0.80675868
   0.12888492  0.05805221  0.71067656
   0.63635972  0.60719032  0.20032830
   0.87350203  0.38906418  0.69393103
   0.37720033  0.90772211  0.19888543
   0.38021663  0.10889830  0.29858086
   0.87074331  0.58694332  0.79830826
   0.14023826  0.07329942  0.05206708
   0.66213324  0.55737576  0.55752617
   0.64786262  0.40262434  0.94266781
   0.14959405  0.94240575  0.44041932
   0.33299581  0.07347983  0.95530705
   0.84634228  0.57605977  0.45803070
   0.81545384  0.41357274  0.04623859
   0.32028106  0.91450113  0.55521289
   0.17336444  0.09431060  0.20949470
   0.67612659  0.57292161  0.70603779
   0.18735716  0.91074631  0.30397908
   0.68689245  0.38302132  0.79920940
   0.82679933  0.59302172  0.29979557
   0.33328039  0.07093765  0.80680554
   0.82386606  0.42249909  0.19571429
   0.34064803  0.88263058  0.70615730
   0.83825802  0.91558389  0.94711663
   0.36716375  0.44805905  0.44579954
   0.84616411  0.06111189  0.55424476
   0.34022675  0.57575453  0.04507422
   0.15295016  0.45554505  0.53596467
   0.64933087  0.89478360  0.05003001
   0.14448128  0.54549010  0.94337980
   0.64478842  0.07993975  0.46040023
   0.33876461  0.43350650  0.29399016
   0.81903100  0.88063763  0.80998505
   0.81383731  0.07578971  0.70534986
   0.32149696  0.63012034  0.19975842
   0.19093448  0.38342267  0.68803869
   0.66544422  0.89320956  0.20044162
   0.68895346  0.09964512  0.29760429
   0.17251621  0.55631274  0.79791216
   0.03701123  0.15615560  0.31931822
   0.58544926  0.62493935  0.84372616
   0.58046781  0.33723430  0.67338553
   0.08050554  0.83136944  0.16938957
   0.38637761  0.18115452  0.66109213
   0.92909422  0.64502003  0.17368677
   0.89330380  0.35884483  0.35371351
   0.40950459  0.79749183  0.83232663
   0.09185871  0.12669036  0.91067010
   0.58236102  0.66207494  0.41483126
   0.09844738  0.85297514  0.58487209
   0.56117784  0.31411812  0.07351030
   0.91972554  0.66682746  0.57023896
   0.38104263  0.14856375  0.08441076
   0.91425706  0.31769714  0.91085911
   0.39361972  0.82565877  0.40574852
   0.93152371  0.83101290  0.67658752
   0.42168107  0.31865557  0.17996757
   0.92262462  0.14294082  0.82006367
   0.42514897  0.66763570  0.31706423
   0.10191081  0.33082013  0.83244961
   0.59460624  0.84428074  0.32955309
   0.09142173  0.64451624  0.66171025
   0.59343465  0.13784811  0.16055268
   0.42532607  0.36432154  0.58165400
   0.88154439  0.83042890  0.09261050
   0.89770970  0.14438865  0.42641287
   0.38719218  0.62348668  0.91673222
   0.09278786  0.30794765  0.41616438
   0.55784186  0.80497830  0.93813274
   0.59439454  0.16461867  0.58249761
   0.07154451  0.66722262  0.07001178
Direct configuration=   200
   0.99361537  0.99303711  0.12028775
   0.51686131  0.51983857  0.62638374
   0.25793377  0.46997775  0.87459414
   0.00944157  0.98385091  0.37619654
   0.70066049  0.93141154  0.87823339
   0.00053191  0.50617057  0.39815963
   0.00583951  0.48651064  0.12402725
   0.23959831  0.23929905  0.14139241
   0.68823478  0.02821772  0.61886143
   0.76640103  0.22706126  0.74800269
   0.75716175  0.73267868  0.36263194
   0.26729700  0.22001581  0.88293859
   0.75314121  0.25712121  0.12322418
   0.28126531  0.78631776  0.60276443
   0.96209094  0.94936166  0.87229021
   0.49378700  0.46838872  0.35356259
   0.94144187  0.98623263  0.60861783
   0.97688978  0.46694775  0.60068526
   0.48764409  0.00017452  0.12741582
   0.02163478  0.47268974  0.84887107
   0.47544764  0.02685386  0.38904962
   0.24206908  0.08080958  0.37452695
   0.77557584  0.50061148  0.87807567
   0.74508496  0.43787357  0.63769111
   0.25369840  0.71731301  0.11693566
   0.22771774  0.27498391  0.61421745
   0.71976423  0.74422225  0.11021430
   0.73039617  0.23390224  0.37880693
   0.50937515  0.77425258  0.50224184
   0.50708279  0.24484997  0.00078316
   0.00417326  0.00557516  0.49669526
   0.46734320  0.76880613  0.73604748
   0.98087024  0.73147348  0.25168010
   0.49721554  0.22350203  0.74830312
   0.96478634  0.04730625  0.98521642
   0.49376896  0.25218477  0.48610078
   0.47637766  0.72456814  0.00227898
   0.86952568  0.20596975  0.25382668
   0.98741096  0.75648937  0.74973182
   0.49110419  0.74363472  0.23381784
   0.03808961  0.96999781  0.24161299
   0.53930592  0.46664796  0.74170957
   0.45592359  0.00656378  0.88019422
   0.97248982  0.49000374  0.26016308
   0.20141557  0.19865546  0.00180006
   0.76373857  0.72558349  0.50416904
   0.27097828  0.77955447  0.49119443
   0.80473107  0.25415615  0.99821040
   0.96902852  0.00353587  0.74632874
   0.48012034  0.48222756  0.23344434
   0.02832233  0.52952128  0.72786779
   0.54145780  0.01696295  0.25043720
   0.26626085  0.29984829  0.46964198
   0.69666569  0.74886067  0.96804329
   0.72573501  0.23112582  0.51222851
   0.19959245  0.70849875  0.01214958
   0.98482684  0.49994175  0.00707802
   0.51104602  0.53475356  0.48367148
   0.49216201  0.46912617  0.01300376
   0.97868042  0.24979702  0.51000955
   0.46832864  0.98522932  0.99016437
   0.00722192  0.72732725  0.49841872
   0.95536207  0.76508965  0.01331968
   0.51794877  0.02202871  0.54048505
   0.57438223  0.23181224  0.26717932
   0.70804136  0.73902224  0.76708369
   0.27025669  0.76209399  0.24460985
   0.03351086  0.26151190  0.73770991
   0.74357728  0.74111791  0.24664536
   0.27069950  0.23082872  0.74516644
   0.21263027  0.24738584  0.27845725
   0.23717704  0.73374155  0.74652383
   0.28511824  0.45522002  0.12358168
   0.47583101  0.99799630  0.71909227
   0.71047750  0.18196669  0.86475865
   0.22071727  0.49754889  0.36022180
   0.24285242  0.71702732  0.89038941
   0.72928014  0.96888540  0.37753841
   0.73008036  0.98716042  0.12487622
   0.23909765  0.52671326  0.61581624
   0.51362804  0.46251540  0.88755414
   0.24814201  0.76859198  0.36299819
   0.70963238  0.73746366  0.63311900
   0.26472950  0.96148442  0.12799089
   0.23418058  0.03589223  0.63367167
   0.67389513  0.47837983  0.11442297
   0.23016409  0.97054613  0.87252356
   0.75579596  0.45998752  0.38453939
   0.28875310  0.02324933  0.25427372
   0.77809742  0.48817997  0.74904252
   0.23276062  0.97964293  0.75379715
   0.73453254  0.49292398  0.24264305
   0.22186564  0.95424467  0.00016037
   0.75743721  0.48657466  0.51055863
   0.24958904  0.02345498  0.50282809
   0.74934104  0.51005775  0.99833694
   0.71418290  0.99170192  0.74956257
   0.23091143  0.51802640  0.24356040
   0.27044529  0.48767824  0.74991316
   0.79050891  0.98783863  0.24365960
   0.26337826  0.54020553  0.49331945
   0.72253407  0.99772699  0.00378812
   0.74854418  0.97669211  0.50106302
   0.23392974  0.44915654  0.00630479
   0.00723695  0.24388661  0.38033620
   0.49305145  0.72685709  0.87506054
   0.49178784  0.26704420  0.62324148
   0.98857646  0.72236669  0.13272612
   0.98979499  0.21108971  0.87121543
   0.49399432  0.74838541  0.37376265
   0.99498302  0.74220562  0.61725774
   0.50095962  0.24916690  0.12839878
   0.15195716  0.36046586  0.06248108
   0.65575559  0.88006597  0.55591752
   0.63727456  0.08509454  0.94482519
   0.15401655  0.62353140  0.45098446
   0.33417973  0.35046733  0.95462042
   0.84400028  0.87721908  0.45968778
   0.81612078  0.08824715  0.05480118
   0.34628218  0.63845777  0.54699306
   0.89574291  0.06445567  0.19175887
   0.38260328  0.58613941  0.70012840
   0.87489022  0.88978802  0.29774158
   0.36624510  0.37534752  0.79483353
   0.13879506  0.62743941  0.29171480
   0.61935517  0.08897714  0.79456254
   0.12707319  0.41367279  0.20301395
   0.61320914  0.87812508  0.70795928
   0.83785104  0.61008820  0.95703552
   0.34879184  0.13198325  0.45443121
   0.84227140  0.37336665  0.55253938
   0.32615404  0.86268322  0.04169363
   0.13629448  0.12365436  0.54545553
   0.63483897  0.60347005  0.04136511
   0.12549338  0.84998783  0.95390970
   0.64595566  0.39871027  0.45892095
   0.65169099  0.40196665  0.30375935
   0.12257876  0.87595817  0.79945152
   0.13861165  0.09261257  0.71189954
   0.63869919  0.59504079  0.19466567
   0.88070617  0.39197976  0.70770543
   0.38687222  0.92190423  0.20497975
   0.39027387  0.12382193  0.30038719
   0.88148478  0.59347997  0.79141273
   0.13687340  0.03894442  0.05380924
   0.67043375  0.59496706  0.56436287
   0.66250049  0.40151365  0.95265343
   0.16658501  0.92178259  0.44309439
   0.30766880  0.06424859  0.94793274
   0.85226372  0.56134560  0.45315573
   0.82691146  0.41821324  0.05906443
   0.34949001  0.92709368  0.55233190
   0.19116058  0.10255184  0.20299559
   0.68324981  0.58955222  0.70136269
   0.20839379  0.92075582  0.30622723
   0.69044660  0.39278600  0.80332213
   0.81786419  0.59081564  0.29775527